<?xml version="1.0"?>
<VTKFile type="UnstructuredGrid"  version="0.1"  >
<UnstructuredGrid>
<Piece  NumberOfPoints="58" NumberOfCells="148">
<Points>
<DataArray  type="Float64"  NumberOfComponents="3"  format="ascii">0.4023249999999999 0 0  0 0 -0.8046499999999999  0.266805 0 0  0 0 -0.6691299999999999  0.2844867357408777 0.2844867357408777 0  2.775557561562891e-17 0.4023249999999999 0  -0.2844867357408777 0.2844867357408777 0  -0.4023249999999999 2.775557561562891e-17 0  -0.2844867357408777 -0.2844867357408777 0  -2.775557561562891e-17 -0.4023249999999999 0  0.2844867357408777 -0.2844867357408777 0  0.1886596247544768 0.1886596247544768 0  2.775557561562891e-17 0.266805 0  -0.1886596247544767 0.1886596247544768 0  -0.266805 8.326672684688674e-17 0  -0.1886596247544768 -0.1886596247544767 0  -1.387778780781446e-16 -0.266805 0  0.1886596247544766 -0.1886596247544769 0  0.3686082568662342 0 -0.3224491190562394  0.2536108874396318 0 -0.6246500569025265  0.2466044134321161 0 -0.2554056152626437  0.1766587270840894 0 -0.5014405794480644  0.2606453980314651 0.2606453980314651 -0.3224491190562516  0.1793299782912967 0.1793299782912967 -0.6246500569025382  2.542952674080888e-17 0.3686082568662342 -0.3224491190562394  1.749609435972772e-17 0.2536108874396318 -0.6246500569025265  -0.2606453980314651 0.2606453980314651 -0.3224491190562516  -0.1793299782912967 0.1793299782912967 -0.6246500569025382  -0.3686082568662342 2.542952674080888e-17 -0.3224491190562394  -0.2536108874396318 1.749609435972772e-17 -0.6246500569025265  -0.2606453980314651 -0.2606453980314651 -0.3224491190562516  -0.1793299782912967 -0.1793299782912967 -0.6246500569025382  -2.542952674080888e-17 -0.3686082568662342 -0.3224491190562394  -1.749609435972772e-17 -0.2536108874396318 -0.6246500569025265  0.2606453980314651 -0.2606453980314651 -0.3224491190562516  0.1793299782912967 -0.1793299782912967 -0.6246500569025382  0.1743756530083801 0.17437565300838 -0.2554056152626451  0.1249165838769436 0.1249165838769436 -0.5014405794480633  2.565411984094344e-17 0.2466044134321161 -0.2554056152626437  1.837770902997769e-17 0.1766587270840894 -0.5014405794480644  -0.1743756530083802 0.1743756530083803 -0.2554056152626436  -0.1249165838769431 0.1249165838769432 -0.5014405794480646  -0.2466044134321161 7.696235952283031e-17 -0.2554056152626437  -0.1766587270840894 5.513312708993305e-17 -0.5014405794480644  -0.1743756530083802 -0.17437565300838 -0.2554056152626445  -0.1249165838769429 -0.1249165838769428 -0.5014405794480657  -1.282705992047172e-16 -0.2466044134321161 -0.2554056152626437  -9.188854514988842e-17 -0.1766587270840894 -0.5014405794480644  0.1743756530083804 -0.1743756530083806 -0.2554056152626407  0.1249165838769432 -0.1249165838769434 -0.5014405794480641  -0.2855690901238386 -0.1182865901238386 0  -0.2855690901238385 0.1182865901238386 0  -0.1182865901238386 0.2855690901238386 -0  0.1182865901238386 0.2855690901238386 0  0.2855690901238386 0.1182865901238386 0  0.2855690901238386 -0.1182865901238386 0  0.1182865901238385 -0.2855690901238386 0  -0.1182865901238387 -0.2855690901238386 0  </DataArray>
</Points>
<Cells>
<DataArray  type="UInt32"  Name="connectivity"  format="ascii">5 6 24 52  8 9 32 57  7 8 28 50  9 10 32 56  0 4 18 54  6 7 28 51  0 10 18 55  4 5 24 53  10 18 34 55  4 18 22 54  4 22 24 53  8 28 30 50  30 42 44 50  22 23 37 39  21 22 23 37  30 31 43 45  30 31 45 47  20 34 48 55  22 36 38 53  20 22 36 54  28 40 42 51  21 34 35 49  33 34 47 49  16 17 46 56  15 16 46 57  25 26 39 41  22 24 38 53  18 20 34 55  18 20 22 54  28 30 42 50  29 30 31 43  22 23 25 39  19 21 22 23  30 31 33 47  28 29 41 43  15 42 44 50  9 32 46 57  0 18 20 55  5 24 38 52  7 28 42 51  5 24 38 53  0 18 20 54  9 32 46 56  7 28 42 50  33 34 35 49  9 16 46 57  9 16 46 56  12 36 38 53  2 11 20 54  11 12 36 53  14 15 42 50  14 40 42 51  13 14 40 51  12 13 38 52  2 17 48 55  11 20 36 54  2 20 48 55  25 26 27 41  8 30 44 50  10 34 48 55  4 22 36 54  4 22 36 53  27 28 29 41  18 21 34 35  26 27 28 41  18 19 21 35  28 29 30 43  24 25 26 39  22 24 25 39  30 32 33 47  18 19 21 22  32 33 34 47  0 2 20 54  0 2 20 55  7 14 42 50  7 14 42 51  5 12 38 52  5 12 38 53  30 43 44 45  30 44 45 47  22 36 37 39  21 22 36 37  34 47 48 49  21 34 48 49  1 3 31 33  1 3 23 25  1 3 19 23  1 3 29 31  8 15 44 50  30 42 43 44  26 39 40 41  22 36 38 39  20 21 22 36  20 21 34 48  4 11 36 54  4 11 36 53  6 13 40 51  10 17 48 55  3 31 43 45  3 23 37 39  3 31 45 47  3 21 23 37  28 41 42 43  32 44 46 47  1 3 27 29  1 3 33 35  1 3 19 35  1 3 25 27  32 46 47 48  28 40 41 42  24 38 39 40  30 32 44 47  3 33 47 49  3 21 35 49  26 28 40 41  28 30 42 43  24 26 39 40  22 24 38 39  32 34 47 48  18 20 21 22  18 20 21 34  3 29 41 43  3 25 39 41  3 29 31 43  3 23 25 39  3 31 33 47  3 19 21 23  3 33 35 49  3 27 29 41  3 25 27 41  3 19 21 35  6 24 26 40  10 32 34 48  8 30 32 44  6 26 28 40  6 28 40 51  8 15 44 46  8 15 46 57  8 32 44 46  8 32 46 57  10 17 46 56  10 17 46 48  10 32 46 56  10 32 46 48  6 13 38 52  6 13 38 40  6 24 38 52  6 24 38 40  </DataArray>
<DataArray  type="UInt32"  Name="offsets"  format="ascii">4 8 12 16 20 24 28 32 36 40 44 48 52 56 60 64 68 72 76 80 84 88 92 96 100 104 108 112 116 120 124 128 132 136 140 144 148 152 156 160 164 168 172 176 180 184 188 192 196 200 204 208 212 216 220 224 228 232 236 240 244 248 252 256 260 264 268 272 276 280 284 288 292 296 300 304 308 312 316 320 324 328 332 336 340 344 348 352 356 360 364 368 372 376 380 384 388 392 396 400 404 408 412 416 420 424 428 432 436 440 444 448 452 456 460 464 468 472 476 480 484 488 492 496 500 504 508 512 516 520 524 528 532 536 540 544 548 552 556 560 564 568 572 576 580 584 588 592 </DataArray>
<DataArray  type="UInt8"  Name="types"  format="ascii">10 10 10 10 10 10 10 10 10 10 10 10 10 10 10 10 10 10 10 10 10 10 10 10 10 10 10 10 10 10 10 10 10 10 10 10 10 10 10 10 10 10 10 10 10 10 10 10 10 10 10 10 10 10 10 10 10 10 10 10 10 10 10 10 10 10 10 10 10 10 10 10 10 10 10 10 10 10 10 10 10 10 10 10 10 10 10 10 10 10 10 10 10 10 10 10 10 10 10 10 10 10 10 10 10 10 10 10 10 10 10 10 10 10 10 10 10 10 10 10 10 10 10 10 10 10 10 10 10 10 10 10 10 10 10 10 10 10 10 10 10 10 10 10 10 10 10 10 </DataArray>
</Cells>
<PointData  Vectors="f_37-0"> 
<DataArray  type="Float64"  Name="f_37-0"  NumberOfComponents="3" format="ascii">3.1584585781849590e-02 1.6485520066889432e-03 0.0000000000000000e+00  -1.1162554270406730e-03 -1.4703719587178306e-05 -2.7245234026361660e-02  5.3233920356309895e-02 -1.4067738391053887e-02 0.0000000000000000e+00  -3.7462265723193833e-04 -9.9669219040799208e-04 -4.2495422306894459e-02  2.5970502565434546e-02 2.4029330048401978e-02 0.0000000000000000e+00  -7.4852893149895180e-04 2.8737111936574581e-02 0.0000000000000000e+00  -2.4303021921645681e-02 2.2408636947792784e-02 0.0000000000000000e+00  -3.0384395588923065e-02 4.9852339793898868e-04 0.0000000000000000e+00  -2.6921822700850737e-02 -2.0182332873624288e-02 0.0000000000000000e+00  1.6856407258349375e-03 -2.8516065237088835e-02 0.0000000000000000e+00  2.4134801758475370e-02 -2.2893870051057131e-02 0.0000000000000000e+00  5.0074554045968736e-02 2.9397757963794683e-02 0.0000000000000000e+00  1.4687148425071817e-02 5.2222695114130566e-02 0.0000000000000000e+00  -2.9613725141681878e-02 5.1052628545978924e-02 0.0000000000000000e+00  -5.2964847079563927e-02 1.3899244015225937e-02 0.0000000000000000e+00  -5.0439275092079981e-02 -3.2213346137339852e-02 0.0000000000000000e+00  -1.4617113777410290e-02 -5.2356188529525498e-02 0.0000000000000000e+00  2.9971713889509938e-02 -5.0584132852580926e-02 0.0000000000000000e+00  2.8531528487168938e-02 8.6336310067175958e-04 -2.5299756744482642e-02  6.9959772543791363e-03 -1.1343482070100865e-03 -3.9225582815592290e-02  5.6754059973976041e-02 1.0081661722666057e-03 -2.5341596188768228e-02  3.7157468499000937e-02 1.0821403304589007e-02 -4.5715871375692635e-02  2.1950087920548211e-02 1.9021244028001053e-02 -2.4333592911918858e-02  5.6568866537985577e-03 4.2703411925800816e-03 -3.8181550558524589e-02  4.2602461471125423e-03 2.9146377002513522e-02 -2.7398729373350125e-02  -9.5139744565271220e-04 8.7149546107322447e-03 -3.9217491733718503e-02  -1.6906032454430373e-02 2.1750466764544108e-02 -2.4587711704256037e-02  -4.3605319486393302e-03 5.5380612574102758e-03 -3.9150146315814240e-02  -2.8880391325346720e-02 -1.0264614419700554e-03 -2.4343596368662852e-02  -6.8124127327428658e-03 1.4120518381927759e-03 -3.8276999152492303e-02  -2.1273241443224036e-02 -2.0520411511275094e-02 -2.3198416863710946e-02  -6.9625071151129233e-03 -5.7250777615882259e-03 -3.8004611458886749e-02  -4.7138676013363575e-03 -3.0373848718408855e-02 -2.6583522370837023e-02  -4.2139192202637438e-04 -9.5957116460298301e-03 -3.9125965782671718e-02  1.6544222979758591e-02 -2.1682116009799988e-02 -2.4880397573788463e-02  3.9628200668560725e-03 -7.8709130007856738e-03 -3.9644745157284521e-02  4.1158002203019288e-02 4.1369168064375926e-02 -2.6413662324881050e-02  1.8177579326592991e-02 3.2632536800749949e-02 -4.6592586979112227e-02  -6.1623145600609710e-04 5.7209836249537988e-02 -2.5609124784543746e-02  -1.0511298174715092e-02 3.7010905186902476e-02 -4.6073269943655487e-02  -3.8871401923741576e-02 3.8521966451401893e-02 -2.5314979614800077e-02  -3.2767313544472459e-02 1.6785860360877931e-02 -4.5692565947475956e-02  -5.7474009875054743e-02 -1.0604157645989713e-03 -2.5375062580838503e-02  -3.7264773445544269e-02 -1.1968389257403306e-02 -4.5662622007852940e-02  -4.1145731343193936e-02 -4.0666180107233739e-02 -2.5727215625634400e-02  -1.8651716464638108e-02 -3.2896518859328316e-02 -4.6105611433442557e-02  1.0816447023120708e-03 -5.8123803646426414e-02 -2.5626103978168249e-02  1.0088446726674905e-02 -3.8251828131332231e-02 -4.5873742460476236e-02  4.0444885714198422e-02 -3.9412683498963923e-02 -2.5714797780409374e-02  3.1245219409651640e-02 -1.7489681453392580e-02 -4.6043147200493115e-02  -5.1619106214306335e-02 -1.2147661128165420e-02 0.0000000000000000e+00  -4.2716770852530228e-02 2.7032729383866139e-02 0.0000000000000000e+00  -1.2335204790372829e-02 4.7855554705860039e-02 0.0000000000000000e+00  2.7923579411395207e-02 4.4946126981190333e-02 0.0000000000000000e+00  5.0829946994866683e-02 1.2344850617270184e-02 0.0000000000000000e+00  4.3953920851983373e-02 -2.6908672909919516e-02 0.0000000000000000e+00  1.2296700560673460e-02 -4.7930284658560418e-02 0.0000000000000000e+00  -2.6541026461727020e-02 -4.3036993293322813e-02 0.0000000000000000e+00  </DataArray> 
</PointData> 
</Piece>
</UnstructuredGrid>
</VTKFile>