<?xml version="1.0"?>
<VTKFile type="UnstructuredGrid"  version="0.1"  >
<UnstructuredGrid>
<Piece  NumberOfPoints="58" NumberOfCells="148">
<Points>
<DataArray  type="Float64"  NumberOfComponents="3"  format="ascii">0.4023249999999999 0 0  0 0 -0.8046499999999999  0.266805 0 0  0 0 -0.6691299999999999  0.2844867357408777 0.2844867357408777 0  2.775557561562891e-17 0.4023249999999999 0  -0.2844867357408777 0.2844867357408777 0  -0.4023249999999999 2.775557561562891e-17 0  -0.2844867357408777 -0.2844867357408777 0  -2.775557561562891e-17 -0.4023249999999999 0  0.2844867357408777 -0.2844867357408777 0  0.1886596247544768 0.1886596247544768 0  2.775557561562891e-17 0.266805 0  -0.1886596247544767 0.1886596247544768 0  -0.266805 8.326672684688674e-17 0  -0.1886596247544768 -0.1886596247544767 0  -1.387778780781446e-16 -0.266805 0  0.1886596247544766 -0.1886596247544769 0  0.3686082568662342 0 -0.3224491190562394  0.2536108874396318 0 -0.6246500569025265  0.2466044134321161 0 -0.2554056152626437  0.1766587270840894 0 -0.5014405794480644  0.2606453980314651 0.2606453980314651 -0.3224491190562516  0.1793299782912967 0.1793299782912967 -0.6246500569025382  2.542952674080888e-17 0.3686082568662342 -0.3224491190562394  1.749609435972772e-17 0.2536108874396318 -0.6246500569025265  -0.2606453980314651 0.2606453980314651 -0.3224491190562516  -0.1793299782912967 0.1793299782912967 -0.6246500569025382  -0.3686082568662342 2.542952674080888e-17 -0.3224491190562394  -0.2536108874396318 1.749609435972772e-17 -0.6246500569025265  -0.2606453980314651 -0.2606453980314651 -0.3224491190562516  -0.1793299782912967 -0.1793299782912967 -0.6246500569025382  -2.542952674080888e-17 -0.3686082568662342 -0.3224491190562394  -1.749609435972772e-17 -0.2536108874396318 -0.6246500569025265  0.2606453980314651 -0.2606453980314651 -0.3224491190562516  0.1793299782912967 -0.1793299782912967 -0.6246500569025382  0.1743756530083801 0.17437565300838 -0.2554056152626451  0.1249165838769436 0.1249165838769436 -0.5014405794480633  2.565411984094344e-17 0.2466044134321161 -0.2554056152626437  1.837770902997769e-17 0.1766587270840894 -0.5014405794480644  -0.1743756530083802 0.1743756530083803 -0.2554056152626436  -0.1249165838769431 0.1249165838769432 -0.5014405794480646  -0.2466044134321161 7.696235952283031e-17 -0.2554056152626437  -0.1766587270840894 5.513312708993305e-17 -0.5014405794480644  -0.1743756530083802 -0.17437565300838 -0.2554056152626445  -0.1249165838769429 -0.1249165838769428 -0.5014405794480657  -1.282705992047172e-16 -0.2466044134321161 -0.2554056152626437  -9.188854514988842e-17 -0.1766587270840894 -0.5014405794480644  0.1743756530083804 -0.1743756530083806 -0.2554056152626407  0.1249165838769432 -0.1249165838769434 -0.5014405794480641  -0.2855690901238386 -0.1182865901238386 0  -0.2855690901238385 0.1182865901238386 0  -0.1182865901238386 0.2855690901238386 -0  0.1182865901238386 0.2855690901238386 0  0.2855690901238386 0.1182865901238386 0  0.2855690901238386 -0.1182865901238386 0  0.1182865901238385 -0.2855690901238386 0  -0.1182865901238387 -0.2855690901238386 0  </DataArray>
</Points>
<Cells>
<DataArray  type="UInt32"  Name="connectivity"  format="ascii">5 6 24 52  8 9 32 57  7 8 28 50  9 10 32 56  0 4 18 54  6 7 28 51  0 10 18 55  4 5 24 53  10 18 34 55  4 18 22 54  4 22 24 53  8 28 30 50  30 42 44 50  22 23 37 39  21 22 23 37  30 31 43 45  30 31 45 47  20 34 48 55  22 36 38 53  20 22 36 54  28 40 42 51  21 34 35 49  33 34 47 49  16 17 46 56  15 16 46 57  25 26 39 41  22 24 38 53  18 20 34 55  18 20 22 54  28 30 42 50  29 30 31 43  22 23 25 39  19 21 22 23  30 31 33 47  28 29 41 43  15 42 44 50  9 32 46 57  0 18 20 55  5 24 38 52  7 28 42 51  5 24 38 53  0 18 20 54  9 32 46 56  7 28 42 50  33 34 35 49  9 16 46 57  9 16 46 56  12 36 38 53  2 11 20 54  11 12 36 53  14 15 42 50  14 40 42 51  13 14 40 51  12 13 38 52  2 17 48 55  11 20 36 54  2 20 48 55  25 26 27 41  8 30 44 50  10 34 48 55  4 22 36 54  4 22 36 53  27 28 29 41  18 21 34 35  26 27 28 41  18 19 21 35  28 29 30 43  24 25 26 39  22 24 25 39  30 32 33 47  18 19 21 22  32 33 34 47  0 2 20 54  0 2 20 55  7 14 42 50  7 14 42 51  5 12 38 52  5 12 38 53  30 43 44 45  30 44 45 47  22 36 37 39  21 22 36 37  34 47 48 49  21 34 48 49  1 3 31 33  1 3 23 25  1 3 19 23  1 3 29 31  8 15 44 50  30 42 43 44  26 39 40 41  22 36 38 39  20 21 22 36  20 21 34 48  4 11 36 54  4 11 36 53  6 13 40 51  10 17 48 55  3 31 43 45  3 23 37 39  3 31 45 47  3 21 23 37  28 41 42 43  32 44 46 47  1 3 27 29  1 3 33 35  1 3 19 35  1 3 25 27  32 46 47 48  28 40 41 42  24 38 39 40  30 32 44 47  3 33 47 49  3 21 35 49  26 28 40 41  28 30 42 43  24 26 39 40  22 24 38 39  32 34 47 48  18 20 21 22  18 20 21 34  3 29 41 43  3 25 39 41  3 29 31 43  3 23 25 39  3 31 33 47  3 19 21 23  3 33 35 49  3 27 29 41  3 25 27 41  3 19 21 35  6 24 26 40  10 32 34 48  8 30 32 44  6 26 28 40  6 28 40 51  8 15 44 46  8 15 46 57  8 32 44 46  8 32 46 57  10 17 46 56  10 17 46 48  10 32 46 56  10 32 46 48  6 13 38 52  6 13 38 40  6 24 38 52  6 24 38 40  </DataArray>
<DataArray  type="UInt32"  Name="offsets"  format="ascii">4 8 12 16 20 24 28 32 36 40 44 48 52 56 60 64 68 72 76 80 84 88 92 96 100 104 108 112 116 120 124 128 132 136 140 144 148 152 156 160 164 168 172 176 180 184 188 192 196 200 204 208 212 216 220 224 228 232 236 240 244 248 252 256 260 264 268 272 276 280 284 288 292 296 300 304 308 312 316 320 324 328 332 336 340 344 348 352 356 360 364 368 372 376 380 384 388 392 396 400 404 408 412 416 420 424 428 432 436 440 444 448 452 456 460 464 468 472 476 480 484 488 492 496 500 504 508 512 516 520 524 528 532 536 540 544 548 552 556 560 564 568 572 576 580 584 588 592 </DataArray>
<DataArray  type="UInt8"  Name="types"  format="ascii">10 10 10 10 10 10 10 10 10 10 10 10 10 10 10 10 10 10 10 10 10 10 10 10 10 10 10 10 10 10 10 10 10 10 10 10 10 10 10 10 10 10 10 10 10 10 10 10 10 10 10 10 10 10 10 10 10 10 10 10 10 10 10 10 10 10 10 10 10 10 10 10 10 10 10 10 10 10 10 10 10 10 10 10 10 10 10 10 10 10 10 10 10 10 10 10 10 10 10 10 10 10 10 10 10 10 10 10 10 10 10 10 10 10 10 10 10 10 10 10 10 10 10 10 10 10 10 10 10 10 10 10 10 10 10 10 10 10 10 10 10 10 10 10 10 10 10 10 </DataArray>
</Cells>
<PointData  Vectors="f_37-0"> 
<DataArray  type="Float64"  Name="f_37-0"  NumberOfComponents="3" format="ascii">3.0415111091736894e-02 -1.0693919523896537e-03 0.0000000000000000e+00  -2.3500166421552132e-04 -2.8091416691332375e-05 -3.2232303407036866e-02  5.1614061159318457e-02 -1.0804668073083726e-02 0.0000000000000000e+00  -1.3669305958120077e-04 -5.3555855401682308e-04 -4.5358148353882473e-02  2.5860909561109764e-02 2.1437441464423040e-02 0.0000000000000000e+00  1.2470390767590584e-03 2.9012351381092639e-02 0.0000000000000000e+00  -2.1694520015323654e-02 2.4064694652354106e-02 0.0000000000000000e+00  -2.9597583236286418e-02 2.2504211745638866e-03 0.0000000000000000e+00  -2.6302546430037634e-02 -2.0223149513673291e-02 0.0000000000000000e+00  -1.2884598017778427e-03 -2.8068654937321125e-02 0.0000000000000000e+00  2.1040447192387634e-02 -2.4742585770624593e-02 0.0000000000000000e+00  4.5806391441506257e-02 3.0391656170536116e-02 0.0000000000000000e+00  1.1063538554127466e-02 5.1246446792404407e-02 0.0000000000000000e+00  -3.0714465693819047e-02 4.6854748921991346e-02 0.0000000000000000e+00  -5.1494864379373062e-02 1.0577051853791219e-02 0.0000000000000000e+00  -4.6315021337678695e-02 -3.2652376274965859e-02 0.0000000000000000e+00  -1.0883116619469540e-02 -5.1353845522257739e-02 0.0000000000000000e+00  3.0687167627296067e-02 -4.6492668504763981e-02 0.0000000000000000e+00  2.6350108639438131e-02 2.5462934689134467e-04 -2.4617609382993660e-02  7.6978644140962109e-03 2.0327420678154023e-03 -3.8193084120761965e-02  5.2282267000256420e-02 8.5033260391286956e-04 -2.3991587140179332e-02  3.3936052068472854e-02 8.2646672171745195e-03 -4.4063446401693872e-02  1.9771603304241173e-02 1.8338998811908348e-02 -2.3453145358325527e-02  3.6127579894873812e-03 6.9697000614047065e-03 -3.7754908805673400e-02  1.2700855425466764e-03 2.6944477959512807e-02 -2.5412977999515737e-02  -4.0893691570530301e-03 8.2888850441468175e-03 -3.8804173176343722e-02  -1.8503431681042386e-02 1.8634435176049707e-02 -2.2894806639330439e-02  -7.1083590704227742e-03 3.2678920261401487e-03 -3.8751412384282029e-02  -2.7282481901306013e-02 -1.1700532127641211e-03 -2.3669434195052109e-02  -7.3819137631557594e-03 -1.8414655519741708e-03 -3.8129184878861161e-02  -1.8623052002267000e-02 -1.9938718916707149e-02 -2.2359247264198502e-02  -3.8161474701302249e-03 -7.9880680918364179e-03 -3.7574391770850195e-02  -1.4538951787130777e-03 -2.8228749754794329e-02 -2.4866675204857375e-02  3.6262773513882351e-03 -8.8771280585277102e-03 -3.8759691408121716e-02  1.6916678067961991e-02 -1.9471805181933987e-02 -2.3528354828542666e-02  6.9687259620647883e-03 -4.7897389555221527e-03 -3.9014004928311800e-02  3.8017449224371974e-02 3.8211721116744063e-02 -2.4887305683959495e-02  1.8354299005025380e-02 2.9149510361022292e-02 -4.4979499171130206e-02  -6.4163848681855968e-04 5.2843104142456264e-02 -2.4323185557968408e-02  -7.6297592073030131e-03 3.4186696130469131e-02 -4.4409951346321322e-02  -3.6231584400498090e-02 3.6067805223287563e-02 -2.3972195298056258e-02  -2.8934396260899411e-02 1.7132182843072639e-02 -4.4170122844875696e-02  -5.3216204043959298e-02 -6.4099780939116707e-04 -2.4369118782281950e-02  -3.3953537488679290e-02 -8.8346689099309105e-03 -4.4318219319411246e-02  -3.7580992710423596e-02 -3.7309305345678612e-02 -2.4574806246911003e-02  -1.8252399441523161e-02 -2.8951923221959081e-02 -4.4789234780537021e-02  6.0213200243227011e-04 -5.3574243438267569e-02 -2.4280529066715191e-02  7.5641825367535748e-03 -3.5003374761005485e-02 -4.4438531121441388e-02  3.7515048210196390e-02 -3.6971768007331304e-02 -2.4387143619004823e-02  2.8285729620250350e-02 -1.7847330466939728e-02 -4.4722439620639938e-02  -4.6523851377665910e-02 -1.1736336350649312e-02 0.0000000000000000e+00  -3.9767224997277341e-02 2.3906658525441198e-02 0.0000000000000000e+00  -1.2022480144151391e-02 4.4269604817544980e-02 0.0000000000000000e+00  2.4374198697930127e-02 4.0983422839862185e-02 0.0000000000000000e+00  4.5832116661050033e-02 1.1706394790737576e-02 0.0000000000000000e+00  4.0534688511694922e-02 -2.4015095206957094e-02 0.0000000000000000e+00  1.1753212484016704e-02 -4.4153385665838984e-02 0.0000000000000000e+00  -2.3717898770067372e-02 -3.9696818168292576e-02 0.0000000000000000e+00  </DataArray> 
</PointData> 
</Piece>
</UnstructuredGrid>
</VTKFile>