<?xml version="1.0"?>
<VTKFile type="UnstructuredGrid"  version="0.1"  >
<UnstructuredGrid>
<Piece  NumberOfPoints="58" NumberOfCells="148">
<Points>
<DataArray  type="Float64"  NumberOfComponents="3"  format="ascii">0.4023249999999999 0 0  0 0 -0.8046499999999999  0.266805 0 0  0 0 -0.6691299999999999  0.2844867357408777 0.2844867357408777 0  2.775557561562891e-17 0.4023249999999999 0  -0.2844867357408777 0.2844867357408777 0  -0.4023249999999999 2.775557561562891e-17 0  -0.2844867357408777 -0.2844867357408777 0  -2.775557561562891e-17 -0.4023249999999999 0  0.2844867357408777 -0.2844867357408777 0  0.1886596247544768 0.1886596247544768 0  2.775557561562891e-17 0.266805 0  -0.1886596247544767 0.1886596247544768 0  -0.266805 8.326672684688674e-17 0  -0.1886596247544768 -0.1886596247544767 0  -1.387778780781446e-16 -0.266805 0  0.1886596247544766 -0.1886596247544769 0  0.3686082568662342 0 -0.3224491190562394  0.2536108874396318 0 -0.6246500569025265  0.2466044134321161 0 -0.2554056152626437  0.1766587270840894 0 -0.5014405794480644  0.2606453980314651 0.2606453980314651 -0.3224491190562516  0.1793299782912967 0.1793299782912967 -0.6246500569025382  2.542952674080888e-17 0.3686082568662342 -0.3224491190562394  1.749609435972772e-17 0.2536108874396318 -0.6246500569025265  -0.2606453980314651 0.2606453980314651 -0.3224491190562516  -0.1793299782912967 0.1793299782912967 -0.6246500569025382  -0.3686082568662342 2.542952674080888e-17 -0.3224491190562394  -0.2536108874396318 1.749609435972772e-17 -0.6246500569025265  -0.2606453980314651 -0.2606453980314651 -0.3224491190562516  -0.1793299782912967 -0.1793299782912967 -0.6246500569025382  -2.542952674080888e-17 -0.3686082568662342 -0.3224491190562394  -1.749609435972772e-17 -0.2536108874396318 -0.6246500569025265  0.2606453980314651 -0.2606453980314651 -0.3224491190562516  0.1793299782912967 -0.1793299782912967 -0.6246500569025382  0.1743756530083801 0.17437565300838 -0.2554056152626451  0.1249165838769436 0.1249165838769436 -0.5014405794480633  2.565411984094344e-17 0.2466044134321161 -0.2554056152626437  1.837770902997769e-17 0.1766587270840894 -0.5014405794480644  -0.1743756530083802 0.1743756530083803 -0.2554056152626436  -0.1249165838769431 0.1249165838769432 -0.5014405794480646  -0.2466044134321161 7.696235952283031e-17 -0.2554056152626437  -0.1766587270840894 5.513312708993305e-17 -0.5014405794480644  -0.1743756530083802 -0.17437565300838 -0.2554056152626445  -0.1249165838769429 -0.1249165838769428 -0.5014405794480657  -1.282705992047172e-16 -0.2466044134321161 -0.2554056152626437  -9.188854514988842e-17 -0.1766587270840894 -0.5014405794480644  0.1743756530083804 -0.1743756530083806 -0.2554056152626407  0.1249165838769432 -0.1249165838769434 -0.5014405794480641  -0.2855690901238386 -0.1182865901238386 0  -0.2855690901238385 0.1182865901238386 0  -0.1182865901238386 0.2855690901238386 -0  0.1182865901238386 0.2855690901238386 0  0.2855690901238386 0.1182865901238386 0  0.2855690901238386 -0.1182865901238386 0  0.1182865901238385 -0.2855690901238386 0  -0.1182865901238387 -0.2855690901238386 0  </DataArray>
</Points>
<Cells>
<DataArray  type="UInt32"  Name="connectivity"  format="ascii">5 6 24 52  8 9 32 57  7 8 28 50  9 10 32 56  0 4 18 54  6 7 28 51  0 10 18 55  4 5 24 53  10 18 34 55  4 18 22 54  4 22 24 53  8 28 30 50  30 42 44 50  22 23 37 39  21 22 23 37  30 31 43 45  30 31 45 47  20 34 48 55  22 36 38 53  20 22 36 54  28 40 42 51  21 34 35 49  33 34 47 49  16 17 46 56  15 16 46 57  25 26 39 41  22 24 38 53  18 20 34 55  18 20 22 54  28 30 42 50  29 30 31 43  22 23 25 39  19 21 22 23  30 31 33 47  28 29 41 43  15 42 44 50  9 32 46 57  0 18 20 55  5 24 38 52  7 28 42 51  5 24 38 53  0 18 20 54  9 32 46 56  7 28 42 50  33 34 35 49  9 16 46 57  9 16 46 56  12 36 38 53  2 11 20 54  11 12 36 53  14 15 42 50  14 40 42 51  13 14 40 51  12 13 38 52  2 17 48 55  11 20 36 54  2 20 48 55  25 26 27 41  8 30 44 50  10 34 48 55  4 22 36 54  4 22 36 53  27 28 29 41  18 21 34 35  26 27 28 41  18 19 21 35  28 29 30 43  24 25 26 39  22 24 25 39  30 32 33 47  18 19 21 22  32 33 34 47  0 2 20 54  0 2 20 55  7 14 42 50  7 14 42 51  5 12 38 52  5 12 38 53  30 43 44 45  30 44 45 47  22 36 37 39  21 22 36 37  34 47 48 49  21 34 48 49  1 3 31 33  1 3 23 25  1 3 19 23  1 3 29 31  8 15 44 50  30 42 43 44  26 39 40 41  22 36 38 39  20 21 22 36  20 21 34 48  4 11 36 54  4 11 36 53  6 13 40 51  10 17 48 55  3 31 43 45  3 23 37 39  3 31 45 47  3 21 23 37  28 41 42 43  32 44 46 47  1 3 27 29  1 3 33 35  1 3 19 35  1 3 25 27  32 46 47 48  28 40 41 42  24 38 39 40  30 32 44 47  3 33 47 49  3 21 35 49  26 28 40 41  28 30 42 43  24 26 39 40  22 24 38 39  32 34 47 48  18 20 21 22  18 20 21 34  3 29 41 43  3 25 39 41  3 29 31 43  3 23 25 39  3 31 33 47  3 19 21 23  3 33 35 49  3 27 29 41  3 25 27 41  3 19 21 35  6 24 26 40  10 32 34 48  8 30 32 44  6 26 28 40  6 28 40 51  8 15 44 46  8 15 46 57  8 32 44 46  8 32 46 57  10 17 46 56  10 17 46 48  10 32 46 56  10 32 46 48  6 13 38 52  6 13 38 40  6 24 38 52  6 24 38 40  </DataArray>
<DataArray  type="UInt32"  Name="offsets"  format="ascii">4 8 12 16 20 24 28 32 36 40 44 48 52 56 60 64 68 72 76 80 84 88 92 96 100 104 108 112 116 120 124 128 132 136 140 144 148 152 156 160 164 168 172 176 180 184 188 192 196 200 204 208 212 216 220 224 228 232 236 240 244 248 252 256 260 264 268 272 276 280 284 288 292 296 300 304 308 312 316 320 324 328 332 336 340 344 348 352 356 360 364 368 372 376 380 384 388 392 396 400 404 408 412 416 420 424 428 432 436 440 444 448 452 456 460 464 468 472 476 480 484 488 492 496 500 504 508 512 516 520 524 528 532 536 540 544 548 552 556 560 564 568 572 576 580 584 588 592 </DataArray>
<DataArray  type="UInt8"  Name="types"  format="ascii">10 10 10 10 10 10 10 10 10 10 10 10 10 10 10 10 10 10 10 10 10 10 10 10 10 10 10 10 10 10 10 10 10 10 10 10 10 10 10 10 10 10 10 10 10 10 10 10 10 10 10 10 10 10 10 10 10 10 10 10 10 10 10 10 10 10 10 10 10 10 10 10 10 10 10 10 10 10 10 10 10 10 10 10 10 10 10 10 10 10 10 10 10 10 10 10 10 10 10 10 10 10 10 10 10 10 10 10 10 10 10 10 10 10 10 10 10 10 10 10 10 10 10 10 10 10 10 10 10 10 10 10 10 10 10 10 10 10 10 10 10 10 10 10 10 10 10 10 </DataArray>
</Cells>
<PointData  Vectors="f_37-0"> 
<DataArray  type="Float64"  Name="f_37-0"  NumberOfComponents="3" format="ascii">7.3673400014604845e-03 -3.6723301611750738e-03 0.0000000000000000e+00  -5.2937621499457582e-05 4.8982773353070967e-05 -3.7775291322096503e-03  1.1873048883462623e-02 -3.1979589621253164e-03 0.0000000000000000e+00  2.1042082048819364e-05 2.8628327775602732e-05 -4.6345735770338247e-03  8.7441481116537906e-03 3.3087412741793416e-03 0.0000000000000000e+00  3.8441305537414427e-03 7.5095524370201294e-03 0.0000000000000000e+00  -3.1256465063494421e-03 8.6558743853397818e-03 0.0000000000000000e+00  -7.3800653387379716e-03 3.7895050276660265e-03 0.0000000000000000e+00  -8.7393251519860375e-03 -3.3694959447435830e-03 0.0000000000000000e+00  -3.8835735457012884e-03 -7.0791630491189618e-03 0.0000000000000000e+00  2.9034724527463251e-03 -8.5461391316091224e-03 0.0000000000000000e+00  1.1373967825811647e-02 6.8745156206460557e-03 0.0000000000000000e+00  3.3122836549561276e-03 1.2035624051953851e-02 0.0000000000000000e+00  -6.6019659786130669e-03 1.1656493003051473e-02 0.0000000000000000e+00  -1.1977611073578639e-02 3.2091102367646914e-03 0.0000000000000000e+00  -1.1299707435889204e-02 -7.2883024854334330e-03 0.0000000000000000e+00  -2.9873031340761319e-03 -1.2064286558409139e-02 0.0000000000000000e+00  6.5904681149229500e-03 -1.1480517662307876e-02 0.0000000000000000e+00  6.0821449240093329e-03 9.1588011973198821e-04 -3.8558668325763658e-03  1.3154617361594793e-03 3.5583329280046800e-03 -5.1089467770522902e-03  1.1399601448582236e-02 4.4741204125885452e-04 -3.2437985029968139e-03  6.2086284152034427e-03 2.7029729909236340e-03 -5.1853763458091931e-03  3.9631895703684909e-03 5.0823453455727634e-03 -3.7521479327893657e-03  -1.5264031751807334e-03 3.5246250635092330e-03 -5.1848156532984533e-03  -9.3961922770815739e-04 6.2078740332319983e-03 -3.7615409011298052e-03  -3.8783520386787137e-03 1.1248830710769138e-03 -5.1111575423591583e-03  -5.0079080659101854e-03 3.4414048828916269e-03 -3.4765543970937287e-03  -3.4086999767052569e-03 -1.6186205320430755e-03 -5.0166497995200870e-03  -6.4096368461931319e-03 -1.0358380958814960e-03 -3.7315355312066531e-03  -1.2281179866076575e-03 -3.4187686830475304e-03 -5.1554590417631496e-03  -3.5522882419641317e-03 -5.1258627080027486e-03 -3.6067479762130592e-03  1.5808216532812503e-03 -3.5010265081993051e-03 -5.1856932568740159e-03  9.0082223989991115e-04 -6.2532946550165813e-03 -3.7237620947514934e-03  3.9599719920185746e-03 -1.1969481816342981e-03 -5.2957801134619412e-03  4.9309872458904915e-03 -3.7011795884379704e-03 -3.7248130212227510e-03  3.4370239600500048e-03 1.5381438760021717e-03 -5.1924281414045355e-03  8.1137808889235798e-03 8.5460871887086138e-03 -3.4217511496037125e-03  2.8025712476800360e-03 6.3712701127035835e-03 -5.4563814256843634e-03  -3.7349369679560670e-04 1.1576586215973022e-02 -3.2938792430768108e-03  -2.4318834360352272e-03 6.3456027651200286e-03 -5.3024723437384578e-03  -8.0807255030410207e-03 7.7114911773075142e-03 -3.2181061759692167e-03  -6.1805721317270881e-03 2.3412802812190657e-03 -5.2554895387169672e-03  -1.1651284210141164e-02 -2.8922353772027360e-04 -3.4384948043986660e-03  -6.3427275879276860e-03 -2.7008521255254972e-03 -5.2887527740034810e-03  -8.1418542649507510e-03 -8.3837704169677733e-03 -3.4296189942776417e-03  -2.7245378445511729e-03 -6.2837841817150030e-03 -5.6378101523621950e-03  1.7272559031961281e-04 -1.1851382064026013e-02 -3.4700772465627002e-03  2.5196728702135702e-03 -6.4334708816197149e-03 -5.4591422288233684e-03  8.3179444160087629e-03 -7.8348598596242065e-03 -3.4302229974659255e-03  6.2283409263450924e-03 -2.6064840591605693e-03 -5.6073211025893912e-03  -1.1031960329010534e-02 -1.2412145777650431e-03 0.0000000000000000e+00  -8.4751540976597973e-03 6.7428856999651073e-03 0.0000000000000000e+00  -1.2552393527044273e-03 1.1019390623597140e-02 0.0000000000000000e+00  6.8698784447706112e-03 8.7002926689322378e-03 0.0000000000000000e+00  1.0878894593809833e-02 1.3145062438454159e-03 0.0000000000000000e+00  8.5338812461235626e-03 -6.7455346039703981e-03 0.0000000000000000e+00  1.2102353807924894e-03 -1.0758893543998430e-02 0.0000000000000000e+00  -6.8612065178185935e-03 -8.4982564806391180e-03 0.0000000000000000e+00  </DataArray> 
</PointData> 
</Piece>
</UnstructuredGrid>
</VTKFile>