<?xml version="1.0"?>
<VTKFile type="UnstructuredGrid"  version="0.1"  >
<UnstructuredGrid>
<Piece  NumberOfPoints="58" NumberOfCells="148">
<Points>
<DataArray  type="Float64"  NumberOfComponents="3"  format="ascii">0.4023249999999999 0 0  0 0 -0.8046499999999999  0.266805 0 0  0 0 -0.6691299999999999  0.2844867357408777 0.2844867357408777 0  2.775557561562891e-17 0.4023249999999999 0  -0.2844867357408777 0.2844867357408777 0  -0.4023249999999999 2.775557561562891e-17 0  -0.2844867357408777 -0.2844867357408777 0  -2.775557561562891e-17 -0.4023249999999999 0  0.2844867357408777 -0.2844867357408777 0  0.1886596247544768 0.1886596247544768 0  2.775557561562891e-17 0.266805 0  -0.1886596247544767 0.1886596247544768 0  -0.266805 8.326672684688674e-17 0  -0.1886596247544768 -0.1886596247544767 0  -1.387778780781446e-16 -0.266805 0  0.1886596247544766 -0.1886596247544769 0  0.3686082568662342 0 -0.3224491190562394  0.2536108874396318 0 -0.6246500569025265  0.2466044134321161 0 -0.2554056152626437  0.1766587270840894 0 -0.5014405794480644  0.2606453980314651 0.2606453980314651 -0.3224491190562516  0.1793299782912967 0.1793299782912967 -0.6246500569025382  2.542952674080888e-17 0.3686082568662342 -0.3224491190562394  1.749609435972772e-17 0.2536108874396318 -0.6246500569025265  -0.2606453980314651 0.2606453980314651 -0.3224491190562516  -0.1793299782912967 0.1793299782912967 -0.6246500569025382  -0.3686082568662342 2.542952674080888e-17 -0.3224491190562394  -0.2536108874396318 1.749609435972772e-17 -0.6246500569025265  -0.2606453980314651 -0.2606453980314651 -0.3224491190562516  -0.1793299782912967 -0.1793299782912967 -0.6246500569025382  -2.542952674080888e-17 -0.3686082568662342 -0.3224491190562394  -1.749609435972772e-17 -0.2536108874396318 -0.6246500569025265  0.2606453980314651 -0.2606453980314651 -0.3224491190562516  0.1793299782912967 -0.1793299782912967 -0.6246500569025382  0.1743756530083801 0.17437565300838 -0.2554056152626451  0.1249165838769436 0.1249165838769436 -0.5014405794480633  2.565411984094344e-17 0.2466044134321161 -0.2554056152626437  1.837770902997769e-17 0.1766587270840894 -0.5014405794480644  -0.1743756530083802 0.1743756530083803 -0.2554056152626436  -0.1249165838769431 0.1249165838769432 -0.5014405794480646  -0.2466044134321161 7.696235952283031e-17 -0.2554056152626437  -0.1766587270840894 5.513312708993305e-17 -0.5014405794480644  -0.1743756530083802 -0.17437565300838 -0.2554056152626445  -0.1249165838769429 -0.1249165838769428 -0.5014405794480657  -1.282705992047172e-16 -0.2466044134321161 -0.2554056152626437  -9.188854514988842e-17 -0.1766587270840894 -0.5014405794480644  0.1743756530083804 -0.1743756530083806 -0.2554056152626407  0.1249165838769432 -0.1249165838769434 -0.5014405794480641  -0.2855690901238386 -0.1182865901238386 0  -0.2855690901238385 0.1182865901238386 0  -0.1182865901238386 0.2855690901238386 -0  0.1182865901238386 0.2855690901238386 0  0.2855690901238386 0.1182865901238386 0  0.2855690901238386 -0.1182865901238386 0  0.1182865901238385 -0.2855690901238386 0  -0.1182865901238387 -0.2855690901238386 0  </DataArray>
</Points>
<Cells>
<DataArray  type="UInt32"  Name="connectivity"  format="ascii">5 6 24 52  8 9 32 57  7 8 28 50  9 10 32 56  0 4 18 54  6 7 28 51  0 10 18 55  4 5 24 53  10 18 34 55  4 18 22 54  4 22 24 53  8 28 30 50  30 42 44 50  22 23 37 39  21 22 23 37  30 31 43 45  30 31 45 47  20 34 48 55  22 36 38 53  20 22 36 54  28 40 42 51  21 34 35 49  33 34 47 49  16 17 46 56  15 16 46 57  25 26 39 41  22 24 38 53  18 20 34 55  18 20 22 54  28 30 42 50  29 30 31 43  22 23 25 39  19 21 22 23  30 31 33 47  28 29 41 43  15 42 44 50  9 32 46 57  0 18 20 55  5 24 38 52  7 28 42 51  5 24 38 53  0 18 20 54  9 32 46 56  7 28 42 50  33 34 35 49  9 16 46 57  9 16 46 56  12 36 38 53  2 11 20 54  11 12 36 53  14 15 42 50  14 40 42 51  13 14 40 51  12 13 38 52  2 17 48 55  11 20 36 54  2 20 48 55  25 26 27 41  8 30 44 50  10 34 48 55  4 22 36 54  4 22 36 53  27 28 29 41  18 21 34 35  26 27 28 41  18 19 21 35  28 29 30 43  24 25 26 39  22 24 25 39  30 32 33 47  18 19 21 22  32 33 34 47  0 2 20 54  0 2 20 55  7 14 42 50  7 14 42 51  5 12 38 52  5 12 38 53  30 43 44 45  30 44 45 47  22 36 37 39  21 22 36 37  34 47 48 49  21 34 48 49  1 3 31 33  1 3 23 25  1 3 19 23  1 3 29 31  8 15 44 50  30 42 43 44  26 39 40 41  22 36 38 39  20 21 22 36  20 21 34 48  4 11 36 54  4 11 36 53  6 13 40 51  10 17 48 55  3 31 43 45  3 23 37 39  3 31 45 47  3 21 23 37  28 41 42 43  32 44 46 47  1 3 27 29  1 3 33 35  1 3 19 35  1 3 25 27  32 46 47 48  28 40 41 42  24 38 39 40  30 32 44 47  3 33 47 49  3 21 35 49  26 28 40 41  28 30 42 43  24 26 39 40  22 24 38 39  32 34 47 48  18 20 21 22  18 20 21 34  3 29 41 43  3 25 39 41  3 29 31 43  3 23 25 39  3 31 33 47  3 19 21 23  3 33 35 49  3 27 29 41  3 25 27 41  3 19 21 35  6 24 26 40  10 32 34 48  8 30 32 44  6 26 28 40  6 28 40 51  8 15 44 46  8 15 46 57  8 32 44 46  8 32 46 57  10 17 46 56  10 17 46 48  10 32 46 56  10 32 46 48  6 13 38 52  6 13 38 40  6 24 38 52  6 24 38 40  </DataArray>
<DataArray  type="UInt32"  Name="offsets"  format="ascii">4 8 12 16 20 24 28 32 36 40 44 48 52 56 60 64 68 72 76 80 84 88 92 96 100 104 108 112 116 120 124 128 132 136 140 144 148 152 156 160 164 168 172 176 180 184 188 192 196 200 204 208 212 216 220 224 228 232 236 240 244 248 252 256 260 264 268 272 276 280 284 288 292 296 300 304 308 312 316 320 324 328 332 336 340 344 348 352 356 360 364 368 372 376 380 384 388 392 396 400 404 408 412 416 420 424 428 432 436 440 444 448 452 456 460 464 468 472 476 480 484 488 492 496 500 504 508 512 516 520 524 528 532 536 540 544 548 552 556 560 564 568 572 576 580 584 588 592 </DataArray>
<DataArray  type="UInt8"  Name="types"  format="ascii">10 10 10 10 10 10 10 10 10 10 10 10 10 10 10 10 10 10 10 10 10 10 10 10 10 10 10 10 10 10 10 10 10 10 10 10 10 10 10 10 10 10 10 10 10 10 10 10 10 10 10 10 10 10 10 10 10 10 10 10 10 10 10 10 10 10 10 10 10 10 10 10 10 10 10 10 10 10 10 10 10 10 10 10 10 10 10 10 10 10 10 10 10 10 10 10 10 10 10 10 10 10 10 10 10 10 10 10 10 10 10 10 10 10 10 10 10 10 10 10 10 10 10 10 10 10 10 10 10 10 10 10 10 10 10 10 10 10 10 10 10 10 10 10 10 10 10 10 </DataArray>
</Cells>
<PointData  Vectors="f_37-0"> 
<DataArray  type="Float64"  Name="f_37-0"  NumberOfComponents="3" format="ascii">3.1917090156834096e-02 2.7764046036284789e-03 0.0000000000000000e+00  -1.5662053480801560e-03 -2.6829032389111081e-05 -2.6197291439374826e-02  5.3727081027748889e-02 -1.4960027968203064e-02 0.0000000000000000e+00  -4.6665341600192776e-04 -1.1568575435633188e-03 -4.2265968656014154e-02  2.6032825411239802e-02 2.4909493743300974e-02 0.0000000000000000e+00  -1.6260610988553350e-03 2.8759311628878046e-02 0.0000000000000000e+00  -2.5162561574970183e-02 2.1966994730744500e-02 0.0000000000000000e+00  -3.0628328159853103e-02 -2.6954862804025065e-04 0.0000000000000000e+00  -2.7218487394215417e-02 -2.0253478340171101e-02 0.0000000000000000e+00  2.7968678222331442e-03 -2.8761873834262791e-02 0.0000000000000000e+00  2.5050812785684193e-02 -2.2370947420380500e-02 0.0000000000000000e+00  5.1360526477895893e-02 2.9252459213744725e-02 0.0000000000000000e+00  1.5668930001606209e-02 5.2611132822038768e-02 0.0000000000000000e+00  -2.9419541465127402e-02 5.2337476718739492e-02 0.0000000000000000e+00  -5.3440080792925275e-02 1.4836152741894575e-02 0.0000000000000000e+00  -5.1709985449376571e-02 -3.2183052611059179e-02 0.0000000000000000e+00  -1.5664704240210808e-02 -5.2729122875331887e-02 0.0000000000000000e+00  2.9854350912640791e-02 -5.1814833783200807e-02 0.0000000000000000e+00  2.9303991334634780e-02 1.0543129195453339e-03 -2.5560733193236155e-02  6.8859802462941750e-03 -2.1287247481772118e-03 -3.9847487503878058e-02  5.8264241581152641e-02 1.1235742307196749e-03 -2.5903347334838830e-02  3.8172946443164414e-02 1.1653540965381477e-02 -4.6628946333025049e-02  2.2604283972421136e-02 1.9387280557958044e-02 -2.4766653648361177e-02  6.2043499238439957e-03 3.5445928534224712e-03 -3.8855343130761319e-02  5.0747482730244837e-03 2.9903732076873739e-02 -2.8011751429899132e-02  -3.0052712009984519e-06 9.1220820873242434e-03 -3.9444985695790261e-02  -1.6633171760909272e-02 2.2625617076765497e-02 -2.5103086947300783e-02  -3.6729590085969412e-03 6.4786094044804758e-03 -3.9344927603956414e-02  -2.9475346848338187e-02 -1.0551831722921108e-03 -2.4663614235853330e-02  -6.7148473845282455e-03 2.3167321856260967e-03 -3.8823904257224782e-02  -2.2005731504107579e-02 -2.0867167250390416e-02 -2.3595729010914560e-02  -7.8741322397311523e-03 -5.1497335039180523e-03 -3.8668828400231274e-02  -5.5678200292161827e-03 -3.1150847095571116e-02 -2.7134120333915348e-02  -1.7255861822849505e-03 -1.0183711216252158e-02 -3.9080734243202027e-02  1.6583859227498717e-02 -2.2339433328832464e-02 -2.5385501704161380e-02  3.1385340282497958e-03 -8.8452178964658189e-03 -4.0151700119260246e-02  4.2191700260287873e-02 4.2441244692634869e-02 -2.7048251349310312e-02  1.8114954015410013e-02 3.3755985154837881e-02 -4.7510980928913121e-02  -6.7176807883205850e-04 5.8708101561136573e-02 -2.6171089351042828e-02  -1.1422952889326746e-02 3.7883039873101994e-02 -4.6891557882706991e-02  -3.9806179006490153e-02 3.9382418494463271e-02 -2.5835120960759069e-02  -3.4019026553337481e-02 1.6666184543973856e-02 -4.6528262788794211e-02  -5.8918725795756362e-02 -1.2071021155815364e-03 -2.5843013625045524e-02  -3.8378335868915758e-02 -1.2955518126650190e-02 -4.6502684805503854e-02  -4.2287608206092432e-02 -4.1777822916180513e-02 -2.6234484638020222e-02  -1.8745565352657232e-02 -3.4118195772060621e-02 -4.6902305533883838e-02  1.2545252593772235e-03 -5.9675996089960465e-02 -2.6153138565233762e-02  1.0915221122629602e-02 -3.9258723340649025e-02 -4.6565761806033459e-02  4.1489279073062518e-02 -4.0284640210126059e-02 -2.6267661344640984e-02  3.2254258495499517e-02 -1.7421577958287728e-02 -4.6838365308165021e-02  -5.3155309152675037e-02 -1.2106051829054216e-02 0.0000000000000000e+00  -4.3500908050272881e-02 2.8074773677282866e-02 0.0000000000000000e+00  -1.2304442532447153e-02 4.8966490214034895e-02 0.0000000000000000e+00  2.9038525452136647e-02 4.6043971496858273e-02 0.0000000000000000e+00  5.2315208465833027e-02 1.2382286907891877e-02 0.0000000000000000e+00  4.4843841771784174e-02 -2.7863054293302360e-02 0.0000000000000000e+00  1.2294571259063797e-02 -4.9048219786992232e-02 0.0000000000000000e+00  -2.7496362807737977e-02 -4.4012266176922644e-02 0.0000000000000000e+00  </DataArray> 
</PointData> 
</Piece>
</UnstructuredGrid>
</VTKFile>