<?xml version="1.0"?>
<VTKFile type="UnstructuredGrid"  version="0.1"  >
<UnstructuredGrid>
<Piece  NumberOfPoints="58" NumberOfCells="148">
<Points>
<DataArray  type="Float64"  NumberOfComponents="3"  format="ascii">0.4023249999999999 0 0  0 0 -0.8046499999999999  0.266805 0 0  0 0 -0.6691299999999999  0.2844867357408777 0.2844867357408777 0  2.775557561562891e-17 0.4023249999999999 0  -0.2844867357408777 0.2844867357408777 0  -0.4023249999999999 2.775557561562891e-17 0  -0.2844867357408777 -0.2844867357408777 0  -2.775557561562891e-17 -0.4023249999999999 0  0.2844867357408777 -0.2844867357408777 0  0.1886596247544768 0.1886596247544768 0  2.775557561562891e-17 0.266805 0  -0.1886596247544767 0.1886596247544768 0  -0.266805 8.326672684688674e-17 0  -0.1886596247544768 -0.1886596247544767 0  -1.387778780781446e-16 -0.266805 0  0.1886596247544766 -0.1886596247544769 0  0.3686082568662342 0 -0.3224491190562394  0.2536108874396318 0 -0.6246500569025265  0.2466044134321161 0 -0.2554056152626437  0.1766587270840894 0 -0.5014405794480644  0.2606453980314651 0.2606453980314651 -0.3224491190562516  0.1793299782912967 0.1793299782912967 -0.6246500569025382  2.542952674080888e-17 0.3686082568662342 -0.3224491190562394  1.749609435972772e-17 0.2536108874396318 -0.6246500569025265  -0.2606453980314651 0.2606453980314651 -0.3224491190562516  -0.1793299782912967 0.1793299782912967 -0.6246500569025382  -0.3686082568662342 2.542952674080888e-17 -0.3224491190562394  -0.2536108874396318 1.749609435972772e-17 -0.6246500569025265  -0.2606453980314651 -0.2606453980314651 -0.3224491190562516  -0.1793299782912967 -0.1793299782912967 -0.6246500569025382  -2.542952674080888e-17 -0.3686082568662342 -0.3224491190562394  -1.749609435972772e-17 -0.2536108874396318 -0.6246500569025265  0.2606453980314651 -0.2606453980314651 -0.3224491190562516  0.1793299782912967 -0.1793299782912967 -0.6246500569025382  0.1743756530083801 0.17437565300838 -0.2554056152626451  0.1249165838769436 0.1249165838769436 -0.5014405794480633  2.565411984094344e-17 0.2466044134321161 -0.2554056152626437  1.837770902997769e-17 0.1766587270840894 -0.5014405794480644  -0.1743756530083802 0.1743756530083803 -0.2554056152626436  -0.1249165838769431 0.1249165838769432 -0.5014405794480646  -0.2466044134321161 7.696235952283031e-17 -0.2554056152626437  -0.1766587270840894 5.513312708993305e-17 -0.5014405794480644  -0.1743756530083802 -0.17437565300838 -0.2554056152626445  -0.1249165838769429 -0.1249165838769428 -0.5014405794480657  -1.282705992047172e-16 -0.2466044134321161 -0.2554056152626437  -9.188854514988842e-17 -0.1766587270840894 -0.5014405794480644  0.1743756530083804 -0.1743756530083806 -0.2554056152626407  0.1249165838769432 -0.1249165838769434 -0.5014405794480641  -0.2855690901238386 -0.1182865901238386 0  -0.2855690901238385 0.1182865901238386 0  -0.1182865901238386 0.2855690901238386 -0  0.1182865901238386 0.2855690901238386 0  0.2855690901238386 0.1182865901238386 0  0.2855690901238386 -0.1182865901238386 0  0.1182865901238385 -0.2855690901238386 0  -0.1182865901238387 -0.2855690901238386 0  </DataArray>
</Points>
<Cells>
<DataArray  type="UInt32"  Name="connectivity"  format="ascii">5 6 24 52  8 9 32 57  7 8 28 50  9 10 32 56  0 4 18 54  6 7 28 51  0 10 18 55  4 5 24 53  10 18 34 55  4 18 22 54  4 22 24 53  8 28 30 50  30 42 44 50  22 23 37 39  21 22 23 37  30 31 43 45  30 31 45 47  20 34 48 55  22 36 38 53  20 22 36 54  28 40 42 51  21 34 35 49  33 34 47 49  16 17 46 56  15 16 46 57  25 26 39 41  22 24 38 53  18 20 34 55  18 20 22 54  28 30 42 50  29 30 31 43  22 23 25 39  19 21 22 23  30 31 33 47  28 29 41 43  15 42 44 50  9 32 46 57  0 18 20 55  5 24 38 52  7 28 42 51  5 24 38 53  0 18 20 54  9 32 46 56  7 28 42 50  33 34 35 49  9 16 46 57  9 16 46 56  12 36 38 53  2 11 20 54  11 12 36 53  14 15 42 50  14 40 42 51  13 14 40 51  12 13 38 52  2 17 48 55  11 20 36 54  2 20 48 55  25 26 27 41  8 30 44 50  10 34 48 55  4 22 36 54  4 22 36 53  27 28 29 41  18 21 34 35  26 27 28 41  18 19 21 35  28 29 30 43  24 25 26 39  22 24 25 39  30 32 33 47  18 19 21 22  32 33 34 47  0 2 20 54  0 2 20 55  7 14 42 50  7 14 42 51  5 12 38 52  5 12 38 53  30 43 44 45  30 44 45 47  22 36 37 39  21 22 36 37  34 47 48 49  21 34 48 49  1 3 31 33  1 3 23 25  1 3 19 23  1 3 29 31  8 15 44 50  30 42 43 44  26 39 40 41  22 36 38 39  20 21 22 36  20 21 34 48  4 11 36 54  4 11 36 53  6 13 40 51  10 17 48 55  3 31 43 45  3 23 37 39  3 31 45 47  3 21 23 37  28 41 42 43  32 44 46 47  1 3 27 29  1 3 33 35  1 3 19 35  1 3 25 27  32 46 47 48  28 40 41 42  24 38 39 40  30 32 44 47  3 33 47 49  3 21 35 49  26 28 40 41  28 30 42 43  24 26 39 40  22 24 38 39  32 34 47 48  18 20 21 22  18 20 21 34  3 29 41 43  3 25 39 41  3 29 31 43  3 23 25 39  3 31 33 47  3 19 21 23  3 33 35 49  3 27 29 41  3 25 27 41  3 19 21 35  6 24 26 40  10 32 34 48  8 30 32 44  6 26 28 40  6 28 40 51  8 15 44 46  8 15 46 57  8 32 44 46  8 32 46 57  10 17 46 56  10 17 46 48  10 32 46 56  10 32 46 48  6 13 38 52  6 13 38 40  6 24 38 52  6 24 38 40  </DataArray>
<DataArray  type="UInt32"  Name="offsets"  format="ascii">4 8 12 16 20 24 28 32 36 40 44 48 52 56 60 64 68 72 76 80 84 88 92 96 100 104 108 112 116 120 124 128 132 136 140 144 148 152 156 160 164 168 172 176 180 184 188 192 196 200 204 208 212 216 220 224 228 232 236 240 244 248 252 256 260 264 268 272 276 280 284 288 292 296 300 304 308 312 316 320 324 328 332 336 340 344 348 352 356 360 364 368 372 376 380 384 388 392 396 400 404 408 412 416 420 424 428 432 436 440 444 448 452 456 460 464 468 472 476 480 484 488 492 496 500 504 508 512 516 520 524 528 532 536 540 544 548 552 556 560 564 568 572 576 580 584 588 592 </DataArray>
<DataArray  type="UInt8"  Name="types"  format="ascii">10 10 10 10 10 10 10 10 10 10 10 10 10 10 10 10 10 10 10 10 10 10 10 10 10 10 10 10 10 10 10 10 10 10 10 10 10 10 10 10 10 10 10 10 10 10 10 10 10 10 10 10 10 10 10 10 10 10 10 10 10 10 10 10 10 10 10 10 10 10 10 10 10 10 10 10 10 10 10 10 10 10 10 10 10 10 10 10 10 10 10 10 10 10 10 10 10 10 10 10 10 10 10 10 10 10 10 10 10 10 10 10 10 10 10 10 10 10 10 10 10 10 10 10 10 10 10 10 10 10 10 10 10 10 10 10 10 10 10 10 10 10 10 10 10 10 10 10 </DataArray>
</Cells>
<PointData  Vectors="f_37-0"> 
<DataArray  type="Float64"  Name="f_37-0"  NumberOfComponents="3" format="ascii">2.9826669236224328e-02 -2.4395281555658387e-03 0.0000000000000000e+00  7.0535846669645013e-05 -8.5279261701019343e-05 -3.4672975299383471e-02  5.0648124031300909e-02 -9.2704725137176501e-03 0.0000000000000000e+00  -6.9644001443706102e-05 -3.5876319582805777e-04 -4.6860525458427130e-02  2.5795904455673022e-02 2.0193115520249140e-02 0.0000000000000000e+00  2.2683606237084929e-03 2.8981687883700768e-02 0.0000000000000000e+00  -2.0485701095047659e-02 2.4720865541833024e-02 0.0000000000000000e+00  -2.9139188729355951e-02 3.2482833015979027e-03 0.0000000000000000e+00  -2.5960937182540399e-02 -1.9910693819392998e-02 0.0000000000000000e+00  -2.6737622531499876e-03 -2.7820860494714456e-02 0.0000000000000000e+00  1.9611806907599033e-02 -2.5440160102593406e-02 0.0000000000000000e+00  4.3738117423494663e-02 3.0732729508991592e-02 0.0000000000000000e+00  9.3757270193795574e-03 5.0524307926355039e-02 0.0000000000000000e+00  -3.1105910620213825e-02 4.4895288967242222e-02 0.0000000000000000e+00  -5.0575665694508408e-02 9.0670343813032198e-03 0.0000000000000000e+00  -4.4234264490924616e-02 -3.2677011512181213e-02 0.0000000000000000e+00  -9.1140868724703984e-03 -5.0658383117091053e-02 0.0000000000000000e+00  3.0946801021097179e-02 -4.4536726073954543e-02 0.0000000000000000e+00  2.5373092227667596e-02 5.6063505747086607e-05 -2.4316800938373673e-02  7.9489079715963362e-03 3.2059172661133466e-03 -3.8047467345082089e-02  5.0255347767288482e-02 7.8209934393942205e-04 -2.3507638009322370e-02  3.2483814320575261e-02 7.1695175237010056e-03 -4.3563153538585635e-02  1.8790026005712387e-02 1.7995003981224465e-02 -2.3172310194078109e-02  2.8741026305588928e-03 8.0558042084266108e-03 -3.7777134135348944e-02  1.6459286123796015e-04 2.5951652758460290e-02 -2.4729214600420883e-02  -5.4334150377708034e-03 8.2825537206476472e-03 -3.8843538271012994e-02  -1.8965396199338364e-02 1.7346676534049619e-02 -2.2386742204326623e-02  -8.1770170470412858e-03 2.4413688124719575e-03 -3.8805374192742201e-02  -2.6456210776082036e-02 -1.2389647290440477e-03 -2.3382135177698639e-02  -7.6385427449101196e-03 -3.0959882336097514e-03 -3.8220903999782452e-02  -1.7458528495541237e-02 -1.9631324431080364e-02 -2.2068841179271988e-02  -2.6489133852376635e-03 -9.0234471084225370e-03 -3.7577091749553530e-02  -2.1652385568141490e-04 -2.7207612224261251e-02 -2.4297909895321719e-02  5.3036680665979876e-03 -8.7455732076684202e-03 -3.8833608196542892e-02  1.6970494027015452e-02 -1.8519088759029152e-02 -2.3086774834697506e-02  8.3296812120644322e-03 -3.6610082596485833e-03 -3.8910408283495457e-02  3.6552290115719588e-02 3.6755138559369169e-02 -2.4314001177437507e-02  1.8300874501513954e-02 2.7592148697548266e-02 -4.4453014021161925e-02  -6.4328501716757417e-04 5.0897290898382061e-02 -2.3858358940109681e-02  -6.4290064024735364e-03 3.2900676439192166e-02 -4.3868254777795775e-02  -3.5029253568352701e-02 3.4954066502284983e-02 -2.3495712246559455e-02  -2.7289900568075585e-02 1.7205769761777415e-02 -4.3688810614822611e-02  -5.1249775734866436e-02 -4.4375002348444521e-04 -2.3983205332852742e-02  -3.2519686556751776e-02 -7.5533723453068699e-03 -4.3908650351084558e-02  -3.6009478980856234e-02 -3.5791162669988393e-02 -2.4103741849745074e-02  -1.8022478865551073e-02 -2.7249801127894539e-02 -4.4353851044967370e-02  4.0911559345956522e-04 -5.1548676920646075e-02 -2.3789641612049876e-02  6.4864001817346376e-03 -3.3542594455567162e-02 -4.3962031959509588e-02  3.6208763241052905e-02 -3.5820433716100671e-02 -2.3902112750134923e-02  2.6981657717073476e-02 -1.7948279121792469e-02 -4.4314471574208827e-02  -4.4045667255409038e-02 -1.1410449280101570e-02 0.0000000000000000e+00  -3.8195424441304950e-02 2.2517115316278591e-02 0.0000000000000000e+00  -1.1754358752884378e-02 4.2431721005096464e-02 0.0000000000000000e+00  2.2768035110471697e-02 3.9047494551234165e-02 0.0000000000000000e+00  4.3426680848708960e-02 1.1321225831863416e-02 0.0000000000000000e+00  3.8743355991393169e-02 -2.2665136315075281e-02 0.0000000000000000e+00  1.1404789527165929e-02 -4.2190432284864729e-02 0.0000000000000000e+00  -2.2394811284313049e-02 -3.8094617506565925e-02 0.0000000000000000e+00  </DataArray> 
</PointData> 
</Piece>
</UnstructuredGrid>
</VTKFile>