<?xml version="1.0"?>
<VTKFile type="UnstructuredGrid"  version="0.1"  >
<UnstructuredGrid>
<Piece  NumberOfPoints="58" NumberOfCells="148">
<Points>
<DataArray  type="Float64"  NumberOfComponents="3"  format="ascii">0.4023249999999999 0 0  0 0 -0.8046499999999999  0.266805 0 0  0 0 -0.6691299999999999  0.2844867357408777 0.2844867357408777 0  2.775557561562891e-17 0.4023249999999999 0  -0.2844867357408777 0.2844867357408777 0  -0.4023249999999999 2.775557561562891e-17 0  -0.2844867357408777 -0.2844867357408777 0  -2.775557561562891e-17 -0.4023249999999999 0  0.2844867357408777 -0.2844867357408777 0  0.1886596247544768 0.1886596247544768 0  2.775557561562891e-17 0.266805 0  -0.1886596247544767 0.1886596247544768 0  -0.266805 8.326672684688674e-17 0  -0.1886596247544768 -0.1886596247544767 0  -1.387778780781446e-16 -0.266805 0  0.1886596247544766 -0.1886596247544769 0  0.3686082568662342 0 -0.3224491190562394  0.2536108874396318 0 -0.6246500569025265  0.2466044134321161 0 -0.2554056152626437  0.1766587270840894 0 -0.5014405794480644  0.2606453980314651 0.2606453980314651 -0.3224491190562516  0.1793299782912967 0.1793299782912967 -0.6246500569025382  2.542952674080888e-17 0.3686082568662342 -0.3224491190562394  1.749609435972772e-17 0.2536108874396318 -0.6246500569025265  -0.2606453980314651 0.2606453980314651 -0.3224491190562516  -0.1793299782912967 0.1793299782912967 -0.6246500569025382  -0.3686082568662342 2.542952674080888e-17 -0.3224491190562394  -0.2536108874396318 1.749609435972772e-17 -0.6246500569025265  -0.2606453980314651 -0.2606453980314651 -0.3224491190562516  -0.1793299782912967 -0.1793299782912967 -0.6246500569025382  -2.542952674080888e-17 -0.3686082568662342 -0.3224491190562394  -1.749609435972772e-17 -0.2536108874396318 -0.6246500569025265  0.2606453980314651 -0.2606453980314651 -0.3224491190562516  0.1793299782912967 -0.1793299782912967 -0.6246500569025382  0.1743756530083801 0.17437565300838 -0.2554056152626451  0.1249165838769436 0.1249165838769436 -0.5014405794480633  2.565411984094344e-17 0.2466044134321161 -0.2554056152626437  1.837770902997769e-17 0.1766587270840894 -0.5014405794480644  -0.1743756530083802 0.1743756530083803 -0.2554056152626436  -0.1249165838769431 0.1249165838769432 -0.5014405794480646  -0.2466044134321161 7.696235952283031e-17 -0.2554056152626437  -0.1766587270840894 5.513312708993305e-17 -0.5014405794480644  -0.1743756530083802 -0.17437565300838 -0.2554056152626445  -0.1249165838769429 -0.1249165838769428 -0.5014405794480657  -1.282705992047172e-16 -0.2466044134321161 -0.2554056152626437  -9.188854514988842e-17 -0.1766587270840894 -0.5014405794480644  0.1743756530083804 -0.1743756530083806 -0.2554056152626407  0.1249165838769432 -0.1249165838769434 -0.5014405794480641  -0.2855690901238386 -0.1182865901238386 0  -0.2855690901238385 0.1182865901238386 0  -0.1182865901238386 0.2855690901238386 -0  0.1182865901238386 0.2855690901238386 0  0.2855690901238386 0.1182865901238386 0  0.2855690901238386 -0.1182865901238386 0  0.1182865901238385 -0.2855690901238386 0  -0.1182865901238387 -0.2855690901238386 0  </DataArray>
</Points>
<Cells>
<DataArray  type="UInt32"  Name="connectivity"  format="ascii">5 6 24 52  8 9 32 57  7 8 28 50  9 10 32 56  0 4 18 54  6 7 28 51  0 10 18 55  4 5 24 53  10 18 34 55  4 18 22 54  4 22 24 53  8 28 30 50  30 42 44 50  22 23 37 39  21 22 23 37  30 31 43 45  30 31 45 47  20 34 48 55  22 36 38 53  20 22 36 54  28 40 42 51  21 34 35 49  33 34 47 49  16 17 46 56  15 16 46 57  25 26 39 41  22 24 38 53  18 20 34 55  18 20 22 54  28 30 42 50  29 30 31 43  22 23 25 39  19 21 22 23  30 31 33 47  28 29 41 43  15 42 44 50  9 32 46 57  0 18 20 55  5 24 38 52  7 28 42 51  5 24 38 53  0 18 20 54  9 32 46 56  7 28 42 50  33 34 35 49  9 16 46 57  9 16 46 56  12 36 38 53  2 11 20 54  11 12 36 53  14 15 42 50  14 40 42 51  13 14 40 51  12 13 38 52  2 17 48 55  11 20 36 54  2 20 48 55  25 26 27 41  8 30 44 50  10 34 48 55  4 22 36 54  4 22 36 53  27 28 29 41  18 21 34 35  26 27 28 41  18 19 21 35  28 29 30 43  24 25 26 39  22 24 25 39  30 32 33 47  18 19 21 22  32 33 34 47  0 2 20 54  0 2 20 55  7 14 42 50  7 14 42 51  5 12 38 52  5 12 38 53  30 43 44 45  30 44 45 47  22 36 37 39  21 22 36 37  34 47 48 49  21 34 48 49  1 3 31 33  1 3 23 25  1 3 19 23  1 3 29 31  8 15 44 50  30 42 43 44  26 39 40 41  22 36 38 39  20 21 22 36  20 21 34 48  4 11 36 54  4 11 36 53  6 13 40 51  10 17 48 55  3 31 43 45  3 23 37 39  3 31 45 47  3 21 23 37  28 41 42 43  32 44 46 47  1 3 27 29  1 3 33 35  1 3 19 35  1 3 25 27  32 46 47 48  28 40 41 42  24 38 39 40  30 32 44 47  3 33 47 49  3 21 35 49  26 28 40 41  28 30 42 43  24 26 39 40  22 24 38 39  32 34 47 48  18 20 21 22  18 20 21 34  3 29 41 43  3 25 39 41  3 29 31 43  3 23 25 39  3 31 33 47  3 19 21 23  3 33 35 49  3 27 29 41  3 25 27 41  3 19 21 35  6 24 26 40  10 32 34 48  8 30 32 44  6 26 28 40  6 28 40 51  8 15 44 46  8 15 46 57  8 32 44 46  8 32 46 57  10 17 46 56  10 17 46 48  10 32 46 56  10 32 46 48  6 13 38 52  6 13 38 40  6 24 38 52  6 24 38 40  </DataArray>
<DataArray  type="UInt32"  Name="offsets"  format="ascii">4 8 12 16 20 24 28 32 36 40 44 48 52 56 60 64 68 72 76 80 84 88 92 96 100 104 108 112 116 120 124 128 132 136 140 144 148 152 156 160 164 168 172 176 180 184 188 192 196 200 204 208 212 216 220 224 228 232 236 240 244 248 252 256 260 264 268 272 276 280 284 288 292 296 300 304 308 312 316 320 324 328 332 336 340 344 348 352 356 360 364 368 372 376 380 384 388 392 396 400 404 408 412 416 420 424 428 432 436 440 444 448 452 456 460 464 468 472 476 480 484 488 492 496 500 504 508 512 516 520 524 528 532 536 540 544 548 552 556 560 564 568 572 576 580 584 588 592 </DataArray>
<DataArray  type="UInt8"  Name="types"  format="ascii">10 10 10 10 10 10 10 10 10 10 10 10 10 10 10 10 10 10 10 10 10 10 10 10 10 10 10 10 10 10 10 10 10 10 10 10 10 10 10 10 10 10 10 10 10 10 10 10 10 10 10 10 10 10 10 10 10 10 10 10 10 10 10 10 10 10 10 10 10 10 10 10 10 10 10 10 10 10 10 10 10 10 10 10 10 10 10 10 10 10 10 10 10 10 10 10 10 10 10 10 10 10 10 10 10 10 10 10 10 10 10 10 10 10 10 10 10 10 10 10 10 10 10 10 10 10 10 10 10 10 10 10 10 10 10 10 10 10 10 10 10 10 10 10 10 10 10 10 </DataArray>
</Cells>
<PointData  Vectors="f_37-0"> 
<DataArray  type="Float64"  Name="f_37-0"  NumberOfComponents="3" format="ascii">2.4222080387194974e-02 -1.0924092513632624e-03 0.0000000000000000e+00  1.4162568851083007e-04 -1.9017833958866304e-04 -2.5915847370109608e-02  4.0505765619585493e-02 -5.3550300558782848e-03 0.0000000000000000e+00  2.7377815503873095e-05 -1.5621083542519947e-04 -3.3150814607884653e-02  1.9968927792839337e-02 1.7378253402715690e-02 0.0000000000000000e+00  8.2401560792271693e-04 2.3884813976695916e-02 0.0000000000000000e+00  -1.7513706973765752e-02 1.9607362368727333e-02 0.0000000000000000e+00  -2.3829559434500561e-02 1.4933541491161325e-03 0.0000000000000000e+00  -1.9874890101708394e-02 -1.7603032563841558e-02 0.0000000000000000e+00  -1.3011696054789066e-03 -2.2855752423609359e-02 0.0000000000000000e+00  1.6706779918384231e-02 -2.0072083396063634e-02 0.0000000000000000e+00  3.3604063311061805e-02 2.6215385485045026e-02 0.0000000000000000e+00  5.3903017537338437e-03 4.0532523393019659e-02 0.0000000000000000e+00  -2.6493134640519004e-02 3.4665921244252884e-02 0.0000000000000000e+00  -4.0480526895626277e-02 5.2979538917609908e-03 0.0000000000000000e+00  -3.3803866160460959e-02 -2.7615611864164488e-02 0.0000000000000000e+00  -5.0707609159000612e-03 -4.0717395429127487e-02 0.0000000000000000e+00  2.6273095380673669e-02 -3.4303321782358689e-02 0.0000000000000000e+00  2.0125842654155117e-02 1.6484634066878939e-04 -1.8005539461978800e-02  5.9573218542373421e-03 1.9831784837951519e-03 -2.7770772645348208e-02  3.9428974173984575e-02 8.5552463205589783e-04 -1.7152069732950564e-02  2.4562046785834499e-02 4.1398551769042920e-03 -3.1112163632617044e-02  1.4702087429114162e-02 1.4597635671099566e-02 -1.7375149541731576e-02  2.5211671755078538e-03 6.0682678998994124e-03 -2.7983683790266847e-02  -4.2643325551748997e-04 2.0497060135035668e-02 -1.8212532676544026e-02  -3.6520556037785180e-03 5.9620448181631307e-03 -2.8509946358737694e-02  -1.5434005492856825e-02 1.3237054493029572e-02 -1.6692382455667010e-02  -5.7569416247853422e-03 2.1085082652369689e-03 -2.8318772525735295e-02  -2.1098164747970102e-02 -1.0572091836640242e-03 -1.7434019223258428e-02  -5.7433757257510055e-03 -1.9929375040768442e-03 -2.8037051991888228e-02  -1.3636566028206202e-02 -1.5632040420979078e-02 -1.6562453531415864e-02  -2.2332889379356818e-03 -6.7543004633739447e-03 -2.7829994531411446e-02  4.3319601831434500e-04 -2.1288673467262112e-02 -1.7880099254392483e-02  3.7603738946414070e-03 -6.3469403027361952e-03 -2.8529904349637390e-02  1.3909893978088148e-02 -1.4313350649866757e-02 -1.7184034323535668e-02  6.1247496900271748e-03 -2.9021468566915280e-03 -2.8465793313738431e-02  2.8445050837913929e-02 2.8994869837840834e-02 -1.7719915608780726e-02  1.4913499294023167e-02 2.0227479263705446e-02 -3.1859934986933132e-02  -7.7577910202104611e-04 4.0028462639494708e-02 -1.7467984986672087e-02  -3.4741541473921407e-03 2.5024629666985578e-02 -3.1365027582067814e-02  -2.7645590345934768e-02 2.7320390642612213e-02 -1.7119284079657217e-02  -1.9870607334070367e-02 1.4022541271664779e-02 -3.1273293369117515e-02  -4.0287026762857656e-02 -4.7897454487134993e-04 -1.7637147872527636e-02  -2.4704898272827843e-02 -4.4435611370659397e-03 -3.1486522718185125e-02  -2.8077011358149807e-02 -2.8140329384593387e-02 -1.7666132046850469e-02  -1.4624986860212092e-02 -1.9926914297300296e-02 -3.1884498249379938e-02  4.2600104023896062e-04 -4.0438550448853403e-02 -1.7406845041444893e-02  3.6166350285947047e-03 -2.5408591469271154e-02 -3.1424658095625883e-02  2.8575689010975753e-02 -2.7926515184371191e-02 -1.7430831838058655e-02  1.9876313493169897e-02 -1.4697928861603171e-02 -3.1866434159521409e-02  -3.3803592237511913e-02 -1.0604769279771284e-02 0.0000000000000000e+00  -3.0955480378196468e-02 1.6086901426382822e-02 0.0000000000000000e+00  -1.0915590945361623e-02 3.3028017982856255e-02 0.0000000000000000e+00  1.6137961429092840e-02 3.1407446764662859e-02 0.0000000000000000e+00  3.3406032307868691e-02 1.0573391654380601e-02 0.0000000000000000e+00  3.1252366047757087e-02 -1.6148943662462719e-02 0.0000000000000000e+00  1.0600311557705305e-02 -3.2684654190482436e-02 0.0000000000000000e+00  -1.6056808359798568e-02 -3.0867448089318683e-02 0.0000000000000000e+00  </DataArray> 
</PointData> 
</Piece>
</UnstructuredGrid>
</VTKFile>