<?xml version="1.0"?>
<VTKFile type="UnstructuredGrid"  version="0.1"  >
<UnstructuredGrid>
<Piece  NumberOfPoints="58" NumberOfCells="148">
<Points>
<DataArray  type="Float64"  NumberOfComponents="3"  format="ascii">0.4023249999999999 0 0  0 0 -0.8046499999999999  0.266805 0 0  0 0 -0.6691299999999999  0.2844867357408777 0.2844867357408777 0  2.775557561562891e-17 0.4023249999999999 0  -0.2844867357408777 0.2844867357408777 0  -0.4023249999999999 2.775557561562891e-17 0  -0.2844867357408777 -0.2844867357408777 0  -2.775557561562891e-17 -0.4023249999999999 0  0.2844867357408777 -0.2844867357408777 0  0.1886596247544768 0.1886596247544768 0  2.775557561562891e-17 0.266805 0  -0.1886596247544767 0.1886596247544768 0  -0.266805 8.326672684688674e-17 0  -0.1886596247544768 -0.1886596247544767 0  -1.387778780781446e-16 -0.266805 0  0.1886596247544766 -0.1886596247544769 0  0.3686082568662342 0 -0.3224491190562394  0.2536108874396318 0 -0.6246500569025265  0.2466044134321161 0 -0.2554056152626437  0.1766587270840894 0 -0.5014405794480644  0.2606453980314651 0.2606453980314651 -0.3224491190562516  0.1793299782912967 0.1793299782912967 -0.6246500569025382  2.542952674080888e-17 0.3686082568662342 -0.3224491190562394  1.749609435972772e-17 0.2536108874396318 -0.6246500569025265  -0.2606453980314651 0.2606453980314651 -0.3224491190562516  -0.1793299782912967 0.1793299782912967 -0.6246500569025382  -0.3686082568662342 2.542952674080888e-17 -0.3224491190562394  -0.2536108874396318 1.749609435972772e-17 -0.6246500569025265  -0.2606453980314651 -0.2606453980314651 -0.3224491190562516  -0.1793299782912967 -0.1793299782912967 -0.6246500569025382  -2.542952674080888e-17 -0.3686082568662342 -0.3224491190562394  -1.749609435972772e-17 -0.2536108874396318 -0.6246500569025265  0.2606453980314651 -0.2606453980314651 -0.3224491190562516  0.1793299782912967 -0.1793299782912967 -0.6246500569025382  0.1743756530083801 0.17437565300838 -0.2554056152626451  0.1249165838769436 0.1249165838769436 -0.5014405794480633  2.565411984094344e-17 0.2466044134321161 -0.2554056152626437  1.837770902997769e-17 0.1766587270840894 -0.5014405794480644  -0.1743756530083802 0.1743756530083803 -0.2554056152626436  -0.1249165838769431 0.1249165838769432 -0.5014405794480646  -0.2466044134321161 7.696235952283031e-17 -0.2554056152626437  -0.1766587270840894 5.513312708993305e-17 -0.5014405794480644  -0.1743756530083802 -0.17437565300838 -0.2554056152626445  -0.1249165838769429 -0.1249165838769428 -0.5014405794480657  -1.282705992047172e-16 -0.2466044134321161 -0.2554056152626437  -9.188854514988842e-17 -0.1766587270840894 -0.5014405794480644  0.1743756530083804 -0.1743756530083806 -0.2554056152626407  0.1249165838769432 -0.1249165838769434 -0.5014405794480641  -0.2855690901238386 -0.1182865901238386 0  -0.2855690901238385 0.1182865901238386 0  -0.1182865901238386 0.2855690901238386 -0  0.1182865901238386 0.2855690901238386 0  0.2855690901238386 0.1182865901238386 0  0.2855690901238386 -0.1182865901238386 0  0.1182865901238385 -0.2855690901238386 0  -0.1182865901238387 -0.2855690901238386 0  </DataArray>
</Points>
<Cells>
<DataArray  type="UInt32"  Name="connectivity"  format="ascii">5 6 24 52  8 9 32 57  7 8 28 50  9 10 32 56  0 4 18 54  6 7 28 51  0 10 18 55  4 5 24 53  10 18 34 55  4 18 22 54  4 22 24 53  8 28 30 50  30 42 44 50  22 23 37 39  21 22 23 37  30 31 43 45  30 31 45 47  20 34 48 55  22 36 38 53  20 22 36 54  28 40 42 51  21 34 35 49  33 34 47 49  16 17 46 56  15 16 46 57  25 26 39 41  22 24 38 53  18 20 34 55  18 20 22 54  28 30 42 50  29 30 31 43  22 23 25 39  19 21 22 23  30 31 33 47  28 29 41 43  15 42 44 50  9 32 46 57  0 18 20 55  5 24 38 52  7 28 42 51  5 24 38 53  0 18 20 54  9 32 46 56  7 28 42 50  33 34 35 49  9 16 46 57  9 16 46 56  12 36 38 53  2 11 20 54  11 12 36 53  14 15 42 50  14 40 42 51  13 14 40 51  12 13 38 52  2 17 48 55  11 20 36 54  2 20 48 55  25 26 27 41  8 30 44 50  10 34 48 55  4 22 36 54  4 22 36 53  27 28 29 41  18 21 34 35  26 27 28 41  18 19 21 35  28 29 30 43  24 25 26 39  22 24 25 39  30 32 33 47  18 19 21 22  32 33 34 47  0 2 20 54  0 2 20 55  7 14 42 50  7 14 42 51  5 12 38 52  5 12 38 53  30 43 44 45  30 44 45 47  22 36 37 39  21 22 36 37  34 47 48 49  21 34 48 49  1 3 31 33  1 3 23 25  1 3 19 23  1 3 29 31  8 15 44 50  30 42 43 44  26 39 40 41  22 36 38 39  20 21 22 36  20 21 34 48  4 11 36 54  4 11 36 53  6 13 40 51  10 17 48 55  3 31 43 45  3 23 37 39  3 31 45 47  3 21 23 37  28 41 42 43  32 44 46 47  1 3 27 29  1 3 33 35  1 3 19 35  1 3 25 27  32 46 47 48  28 40 41 42  24 38 39 40  30 32 44 47  3 33 47 49  3 21 35 49  26 28 40 41  28 30 42 43  24 26 39 40  22 24 38 39  32 34 47 48  18 20 21 22  18 20 21 34  3 29 41 43  3 25 39 41  3 29 31 43  3 23 25 39  3 31 33 47  3 19 21 23  3 33 35 49  3 27 29 41  3 25 27 41  3 19 21 35  6 24 26 40  10 32 34 48  8 30 32 44  6 26 28 40  6 28 40 51  8 15 44 46  8 15 46 57  8 32 44 46  8 32 46 57  10 17 46 56  10 17 46 48  10 32 46 56  10 32 46 48  6 13 38 52  6 13 38 40  6 24 38 52  6 24 38 40  </DataArray>
<DataArray  type="UInt32"  Name="offsets"  format="ascii">4 8 12 16 20 24 28 32 36 40 44 48 52 56 60 64 68 72 76 80 84 88 92 96 100 104 108 112 116 120 124 128 132 136 140 144 148 152 156 160 164 168 172 176 180 184 188 192 196 200 204 208 212 216 220 224 228 232 236 240 244 248 252 256 260 264 268 272 276 280 284 288 292 296 300 304 308 312 316 320 324 328 332 336 340 344 348 352 356 360 364 368 372 376 380 384 388 392 396 400 404 408 412 416 420 424 428 432 436 440 444 448 452 456 460 464 468 472 476 480 484 488 492 496 500 504 508 512 516 520 524 528 532 536 540 544 548 552 556 560 564 568 572 576 580 584 588 592 </DataArray>
<DataArray  type="UInt8"  Name="types"  format="ascii">10 10 10 10 10 10 10 10 10 10 10 10 10 10 10 10 10 10 10 10 10 10 10 10 10 10 10 10 10 10 10 10 10 10 10 10 10 10 10 10 10 10 10 10 10 10 10 10 10 10 10 10 10 10 10 10 10 10 10 10 10 10 10 10 10 10 10 10 10 10 10 10 10 10 10 10 10 10 10 10 10 10 10 10 10 10 10 10 10 10 10 10 10 10 10 10 10 10 10 10 10 10 10 10 10 10 10 10 10 10 10 10 10 10 10 10 10 10 10 10 10 10 10 10 10 10 10 10 10 10 10 10 10 10 10 10 10 10 10 10 10 10 10 10 10 10 10 10 </DataArray>
</Cells>
<PointData  Vectors="f_37-0"> 
<DataArray  type="Float64"  Name="f_37-0"  NumberOfComponents="3" format="ascii">1.3896193859016987e-02 5.1299831306856562e-04 0.0000000000000000e+00  3.6006946049324980e-05 -1.1648102481166120e-04 -9.7567448670490206e-03  2.2625125932487427e-02 -2.2338689538573954e-03 0.0000000000000000e+00  4.9367068590666875e-05 -4.4501702970219883e-05 -1.2144554642454080e-02  1.0743381932530063e-02 1.1050643756518682e-02 0.0000000000000000e+00  -5.6439951934746438e-04 1.3752731931510644e-02 0.0000000000000000e+00  -1.1048956949065249e-02 1.0610629674089775e-02 0.0000000000000000e+00  -1.3745304156087112e-02 -3.5227527497188487e-04 0.0000000000000000e+00  -1.0673946627885723e-02 -1.1151189116328345e-02 0.0000000000000000e+00  3.4582813063686250e-04 -1.3113117136258267e-02 0.0000000000000000e+00  1.0619892950146485e-02 -1.0782512128005250e-02 0.0000000000000000e+00  1.8511013270829754e-02 1.5488543755340542e-02 0.0000000000000000e+00  2.2652554761196974e-03 2.2680243743511932e-02 0.0000000000000000e+00  -1.5531159759939612e-02 1.9147175220495742e-02 0.0000000000000000e+00  -2.2639785917812669e-02 2.2748169415415199e-03 0.0000000000000000e+00  -1.8373438982228259e-02 -1.6334680833048933e-02 0.0000000000000000e+00  -1.9501073239323755e-03 -2.2834494230762274e-02 0.0000000000000000e+00  1.5380736697193366e-02 -1.8883160127186292e-02 0.0000000000000000e+00  1.1208438617951072e-02 -1.0649261337445096e-04 -8.2411238155775824e-03  2.6257846685261571e-03 -1.1664432133125416e-04 -1.1694506277830891e-02  2.1685893141076586e-02 4.5197836162406659e-04 -7.4947409240670483e-03  1.2359640726092861e-02 1.2014482525286687e-03 -1.2555842049945568e-02  8.4442990445143268e-03 8.0085320481454985e-03 -8.1172777744882487e-03  1.8376589881428675e-03 2.1390736069443863e-03 -1.1937379413360724e-02  1.0400101981467630e-04 1.1393961483881150e-02 -8.3574695945351444e-03  -6.1644255571756553e-04 2.5328008802921243e-03 -1.2048978812929182e-02  -8.2062014084990711e-03 7.5219404210479885e-03 -7.7252649867100825e-03  -1.7776867700328154e-03 1.6621723790382127e-03 -1.1906036655404049e-02  -1.1824483104850677e-02 -2.4555211508523324e-04 -8.0514171042333372e-03  -2.5035928969847077e-03 1.0458745429665990e-04 -1.1826428976855322e-02  -7.8834611787451520e-03 -8.3690982801409124e-03 -7.7268756558017421e-03  -1.7446281557377554e-03 -2.4283478604268313e-03 -1.1880043442204042e-02  -1.3538711420630009e-04 -1.1685483998520787e-02 -8.1450776553096162e-03  6.9974911962765148e-04 -2.7770404580695156e-03 -1.2074263675747520e-02  7.5499756884732762e-03 -8.1005071004509772e-03 -7.9630473942319969e-03  1.9887335597582475e-03 -2.0348053491490809e-03 -1.2035545494263427e-02  1.5674721146200225e-02 1.5947728074509913e-02 -7.7795060853896999e-03  8.2249747206071446e-03 9.7260503938974736e-03 -1.3040183883468053e-02  -4.2182013896764929e-04 2.2070996090971299e-02 -7.6860777624881181e-03  -8.1812813944654925e-04 1.2683538143938347e-02 -1.2705988522734061e-02  -1.5019581576665388e-02 1.5017836734666961e-02 -7.4194377652027771e-03  -9.4453606314627951e-03 7.6581409301245589e-03 -1.2700056259204923e-02  -2.2217123440956551e-02 -1.7865742994930194e-04 -7.8381205166476071e-03  -1.2535382439614440e-02 -1.3834263418175143e-03 -1.2822320530430507e-02  -1.5545115343278458e-02 -1.5381053606622234e-02 -7.8184221491795474e-03  -8.0795447479963985e-03 -9.5728877859623911e-03 -1.3101822213521448e-02  1.2342564231562737e-04 -2.2247835996557122e-02 -7.6738495012198408e-03  9.4588131554769310e-04 -1.2855500636848297e-02 -1.2743133512676552e-02  1.5608815170075743e-02 -1.5300859075884835e-02 -7.5927089433569014e-03  9.5130664049442419e-03 -8.0931158337983772e-03 -1.3087558216454853e-02  -1.8633536132807701e-02 -7.0170486159483927e-03 0.0000000000000000e+00  -1.8082363815555062e-02 8.0956097571710170e-03 0.0000000000000000e+00  -7.1904875543276616e-03 1.8403850927663560e-02 0.0000000000000000e+00  8.1072841860004765e-03 1.8231638910927737e-02 0.0000000000000000e+00  1.8484406285077297e-02 7.0774126392687169e-03 0.0000000000000000e+00  1.8183097083847518e-02 -8.0701423597157318e-03 0.0000000000000000e+00  7.0397654559251456e-03 -1.8139269334435652e-02 0.0000000000000000e+00  -8.1201533747722147e-03 -1.7958624641495946e-02 0.0000000000000000e+00  </DataArray> 
</PointData> 
</Piece>
</UnstructuredGrid>
</VTKFile>