<?xml version="1.0"?>
<VTKFile type="UnstructuredGrid"  version="0.1"  >
<UnstructuredGrid>
<Piece  NumberOfPoints="58" NumberOfCells="148">
<Points>
<DataArray  type="Float64"  NumberOfComponents="3"  format="ascii">0.4023249999999999 0 0  0 0 -0.8046499999999999  0.266805 0 0  0 0 -0.6691299999999999  0.2844867357408777 0.2844867357408777 0  2.775557561562891e-17 0.4023249999999999 0  -0.2844867357408777 0.2844867357408777 0  -0.4023249999999999 2.775557561562891e-17 0  -0.2844867357408777 -0.2844867357408777 0  -2.775557561562891e-17 -0.4023249999999999 0  0.2844867357408777 -0.2844867357408777 0  0.1886596247544768 0.1886596247544768 0  2.775557561562891e-17 0.266805 0  -0.1886596247544767 0.1886596247544768 0  -0.266805 8.326672684688674e-17 0  -0.1886596247544768 -0.1886596247544767 0  -1.387778780781446e-16 -0.266805 0  0.1886596247544766 -0.1886596247544769 0  0.3686082568662342 0 -0.3224491190562394  0.2536108874396318 0 -0.6246500569025265  0.2466044134321161 0 -0.2554056152626437  0.1766587270840894 0 -0.5014405794480644  0.2606453980314651 0.2606453980314651 -0.3224491190562516  0.1793299782912967 0.1793299782912967 -0.6246500569025382  2.542952674080888e-17 0.3686082568662342 -0.3224491190562394  1.749609435972772e-17 0.2536108874396318 -0.6246500569025265  -0.2606453980314651 0.2606453980314651 -0.3224491190562516  -0.1793299782912967 0.1793299782912967 -0.6246500569025382  -0.3686082568662342 2.542952674080888e-17 -0.3224491190562394  -0.2536108874396318 1.749609435972772e-17 -0.6246500569025265  -0.2606453980314651 -0.2606453980314651 -0.3224491190562516  -0.1793299782912967 -0.1793299782912967 -0.6246500569025382  -2.542952674080888e-17 -0.3686082568662342 -0.3224491190562394  -1.749609435972772e-17 -0.2536108874396318 -0.6246500569025265  0.2606453980314651 -0.2606453980314651 -0.3224491190562516  0.1793299782912967 -0.1793299782912967 -0.6246500569025382  0.1743756530083801 0.17437565300838 -0.2554056152626451  0.1249165838769436 0.1249165838769436 -0.5014405794480633  2.565411984094344e-17 0.2466044134321161 -0.2554056152626437  1.837770902997769e-17 0.1766587270840894 -0.5014405794480644  -0.1743756530083802 0.1743756530083803 -0.2554056152626436  -0.1249165838769431 0.1249165838769432 -0.5014405794480646  -0.2466044134321161 7.696235952283031e-17 -0.2554056152626437  -0.1766587270840894 5.513312708993305e-17 -0.5014405794480644  -0.1743756530083802 -0.17437565300838 -0.2554056152626445  -0.1249165838769429 -0.1249165838769428 -0.5014405794480657  -1.282705992047172e-16 -0.2466044134321161 -0.2554056152626437  -9.188854514988842e-17 -0.1766587270840894 -0.5014405794480644  0.1743756530083804 -0.1743756530083806 -0.2554056152626407  0.1249165838769432 -0.1249165838769434 -0.5014405794480641  -0.2855690901238386 -0.1182865901238386 0  -0.2855690901238385 0.1182865901238386 0  -0.1182865901238386 0.2855690901238386 -0  0.1182865901238386 0.2855690901238386 0  0.2855690901238386 0.1182865901238386 0  0.2855690901238386 -0.1182865901238386 0  0.1182865901238385 -0.2855690901238386 0  -0.1182865901238387 -0.2855690901238386 0  </DataArray>
</Points>
<Cells>
<DataArray  type="UInt32"  Name="connectivity"  format="ascii">5 6 24 52  8 9 32 57  7 8 28 50  9 10 32 56  0 4 18 54  6 7 28 51  0 10 18 55  4 5 24 53  10 18 34 55  4 18 22 54  4 22 24 53  8 28 30 50  30 42 44 50  22 23 37 39  21 22 23 37  30 31 43 45  30 31 45 47  20 34 48 55  22 36 38 53  20 22 36 54  28 40 42 51  21 34 35 49  33 34 47 49  16 17 46 56  15 16 46 57  25 26 39 41  22 24 38 53  18 20 34 55  18 20 22 54  28 30 42 50  29 30 31 43  22 23 25 39  19 21 22 23  30 31 33 47  28 29 41 43  15 42 44 50  9 32 46 57  0 18 20 55  5 24 38 52  7 28 42 51  5 24 38 53  0 18 20 54  9 32 46 56  7 28 42 50  33 34 35 49  9 16 46 57  9 16 46 56  12 36 38 53  2 11 20 54  11 12 36 53  14 15 42 50  14 40 42 51  13 14 40 51  12 13 38 52  2 17 48 55  11 20 36 54  2 20 48 55  25 26 27 41  8 30 44 50  10 34 48 55  4 22 36 54  4 22 36 53  27 28 29 41  18 21 34 35  26 27 28 41  18 19 21 35  28 29 30 43  24 25 26 39  22 24 25 39  30 32 33 47  18 19 21 22  32 33 34 47  0 2 20 54  0 2 20 55  7 14 42 50  7 14 42 51  5 12 38 52  5 12 38 53  30 43 44 45  30 44 45 47  22 36 37 39  21 22 36 37  34 47 48 49  21 34 48 49  1 3 31 33  1 3 23 25  1 3 19 23  1 3 29 31  8 15 44 50  30 42 43 44  26 39 40 41  22 36 38 39  20 21 22 36  20 21 34 48  4 11 36 54  4 11 36 53  6 13 40 51  10 17 48 55  3 31 43 45  3 23 37 39  3 31 45 47  3 21 23 37  28 41 42 43  32 44 46 47  1 3 27 29  1 3 33 35  1 3 19 35  1 3 25 27  32 46 47 48  28 40 41 42  24 38 39 40  30 32 44 47  3 33 47 49  3 21 35 49  26 28 40 41  28 30 42 43  24 26 39 40  22 24 38 39  32 34 47 48  18 20 21 22  18 20 21 34  3 29 41 43  3 25 39 41  3 29 31 43  3 23 25 39  3 31 33 47  3 19 21 23  3 33 35 49  3 27 29 41  3 25 27 41  3 19 21 35  6 24 26 40  10 32 34 48  8 30 32 44  6 26 28 40  6 28 40 51  8 15 44 46  8 15 46 57  8 32 44 46  8 32 46 57  10 17 46 56  10 17 46 48  10 32 46 56  10 32 46 48  6 13 38 52  6 13 38 40  6 24 38 52  6 24 38 40  </DataArray>
<DataArray  type="UInt32"  Name="offsets"  format="ascii">4 8 12 16 20 24 28 32 36 40 44 48 52 56 60 64 68 72 76 80 84 88 92 96 100 104 108 112 116 120 124 128 132 136 140 144 148 152 156 160 164 168 172 176 180 184 188 192 196 200 204 208 212 216 220 224 228 232 236 240 244 248 252 256 260 264 268 272 276 280 284 288 292 296 300 304 308 312 316 320 324 328 332 336 340 344 348 352 356 360 364 368 372 376 380 384 388 392 396 400 404 408 412 416 420 424 428 432 436 440 444 448 452 456 460 464 468 472 476 480 484 488 492 496 500 504 508 512 516 520 524 528 532 536 540 544 548 552 556 560 564 568 572 576 580 584 588 592 </DataArray>
<DataArray  type="UInt8"  Name="types"  format="ascii">10 10 10 10 10 10 10 10 10 10 10 10 10 10 10 10 10 10 10 10 10 10 10 10 10 10 10 10 10 10 10 10 10 10 10 10 10 10 10 10 10 10 10 10 10 10 10 10 10 10 10 10 10 10 10 10 10 10 10 10 10 10 10 10 10 10 10 10 10 10 10 10 10 10 10 10 10 10 10 10 10 10 10 10 10 10 10 10 10 10 10 10 10 10 10 10 10 10 10 10 10 10 10 10 10 10 10 10 10 10 10 10 10 10 10 10 10 10 10 10 10 10 10 10 10 10 10 10 10 10 10 10 10 10 10 10 10 10 10 10 10 10 10 10 10 10 10 10 </DataArray>
</Cells>
<PointData  Vectors="f_37-0"> 
<DataArray  type="Float64"  Name="f_37-0"  NumberOfComponents="3" format="ascii">3.0794443798688044e-02 4.3900693793086475e-05 0.0000000000000000e+00  -5.2190860234434895e-04 1.0630393578416138e-05 -3.0247138312667524e-02  5.2169323182841877e-02 -1.1980301432472241e-02 0.0000000000000000e+00  -2.0518348028790342e-04 -6.9276583858297511e-04 -4.4072990304911859e-02  2.5830580427498626e-02 2.2392628680394142e-02 0.0000000000000000e+00  4.1303441329490552e-04 2.8911643314533848e-02 0.0000000000000000e+00  -2.2632151399405730e-02 2.3427467267690641e-02 0.0000000000000000e+00  -2.9856124390708227e-02 1.4631064869917087e-03 0.0000000000000000e+00  -2.6480961444629577e-02 -2.0320831263390671e-02 0.0000000000000000e+00  -1.2986944985437517e-04 -2.8189984398589125e-02 0.0000000000000000e+00  2.2152982978114657e-02 -2.4048883980946938e-02 0.0000000000000000e+00  4.7306839286012065e-02 3.0011767380753326e-02 0.0000000000000000e+00  1.2369391307175116e-02 5.1595680165666347e-02 0.0000000000000000e+00  -3.0295820515845579e-02 4.8295577805403674e-02 0.0000000000000000e+00  -5.2003635956293676e-02 1.1753582501553858e-02 0.0000000000000000e+00  -4.7793619520937240e-02 -3.2500416414371298e-02 0.0000000000000000e+00  -1.2244769838875990e-02 -5.1686162323009224e-02 0.0000000000000000e+00  3.0391748297820629e-02 -4.7909388668342587e-02 0.0000000000000000e+00  2.7081684300067587e-02 4.5319066668308170e-04 -2.4795917151850644e-02  7.4437835762010719e-03 9.6893535185493471e-04 -3.8319053256482750e-02  5.3800688738656170e-02 9.1199153192097863e-04 -2.4358526541776650e-02  3.5027589707949155e-02 9.1426629015799454e-03 -4.4436459043246675e-02  2.0524309732454869e-02 1.8566227873525177e-02 -2.3658793407357784e-02  4.2622900331428645e-03 5.9960433622760516e-03 -3.7746762114601318e-02  2.2549485557304292e-03 2.7688802194619447e-02 -2.5963941698452619e-02  -2.9264100271314338e-03 8.3340099469104232e-03 -3.8740538056304924e-02  -1.7983545906565038e-02 1.9674196547933426e-02 -2.3323862076723590e-02  -6.1381556138064832e-03 4.0236346309960140e-03 -3.8670042768983774e-02  -2.7848390268211416e-02 -1.1184092355582115e-03 -2.3845466799807587e-02  -7.1335188443998132e-03 -7.2338471346502402e-04 -3.8023385568348396e-02  -1.9536330837244577e-02 -2.0122033752108064e-02 -2.2568586936545308e-02  -4.8563233507703278e-03 -7.1027482351818539e-03 -3.7578005095965809e-02  -2.5463850851024958e-03 -2.8968650341932217e-02 -2.5326177686251127e-02  2.1566007395694537e-03 -9.0329071452455324e-03 -3.8648411246963374e-02  1.6793212698695915e-02 -2.0210377362908937e-02 -2.3873165902163134e-02  5.8081099414307108e-03 -5.7934667137223310e-03 -3.9068606986096051e-02  3.9096211151082340e-02 3.9295860528411664e-02 -2.5324155596822478e-02  1.8305038387821541e-02 3.0339298679494760e-02 -4.5358757784492706e-02  -6.4162157736023979e-04 5.4309928332693408e-02 -2.4676031517377409e-02  -8.6166795983786525e-03 3.5130763198259814e-02 -4.4802029452521590e-02  -3.7118268685318846e-02 3.6878538672634943e-02 -2.4335066887288620e-02  -3.0224220376258992e-02 1.7002700588481547e-02 -4.4514456656789964e-02  -5.4671543136202524e-02 -8.0134523087362812e-04 -2.4636361272267853e-02  -3.5057894372268791e-02 -9.8944211853323645e-03 -4.4604322666177844e-02  -3.8780635819841092e-02 -3.8454324978793045e-02 -2.4908569203477712e-02  -1.8377625538437900e-02 -3.0277732454608332e-02 -4.5081298283128408e-02  7.7348762613571565e-04 -5.5102082996933914e-02 -2.4652551623392516e-02  8.4372336169657725e-03 -3.6093716032335091e-02 -4.4756483048547221e-02  3.8491304457833747e-02 -3.7793555726856588e-02 -2.4749197936061479e-02  2.9278508419065839e-02 -1.7703562247425718e-02 -4.4996571394538075e-02  -4.8340930001068198e-02 -1.1920394339692646e-02 0.0000000000000000e+00  -4.0848909696930953e-02 2.4973365637442284e-02 0.0000000000000000e+00  -1.2167297428483373e-02 4.5569845646319128e-02 0.0000000000000000e+00  2.5605489535395213e-02 4.2394367244811333e-02 0.0000000000000000e+00  4.7605599349136642e-02 1.1954499588676852e-02 0.0000000000000000e+00  4.1789779573340680e-02 -2.5026098889881752e-02 0.0000000000000000e+00  1.1968564847083004e-02 -4.5534230344168619e-02 0.0000000000000000e+00  -2.4706676395344806e-02 -4.0868381303246451e-02 0.0000000000000000e+00  </DataArray> 
</PointData> 
</Piece>
</UnstructuredGrid>
</VTKFile>