<?xml version="1.0"?>
<VTKFile type="UnstructuredGrid"  version="0.1"  >
<UnstructuredGrid>
<Piece  NumberOfPoints="58" NumberOfCells="148">
<Points>
<DataArray  type="Float64"  NumberOfComponents="3"  format="ascii">0.4023249999999999 0 0  0 0 -0.8046499999999999  0.266805 0 0  0 0 -0.6691299999999999  0.2844867357408777 0.2844867357408777 0  2.775557561562891e-17 0.4023249999999999 0  -0.2844867357408777 0.2844867357408777 0  -0.4023249999999999 2.775557561562891e-17 0  -0.2844867357408777 -0.2844867357408777 0  -2.775557561562891e-17 -0.4023249999999999 0  0.2844867357408777 -0.2844867357408777 0  0.1886596247544768 0.1886596247544768 0  2.775557561562891e-17 0.266805 0  -0.1886596247544767 0.1886596247544768 0  -0.266805 8.326672684688674e-17 0  -0.1886596247544768 -0.1886596247544767 0  -1.387778780781446e-16 -0.266805 0  0.1886596247544766 -0.1886596247544769 0  0.3686082568662342 0 -0.3224491190562394  0.2536108874396318 0 -0.6246500569025265  0.2466044134321161 0 -0.2554056152626437  0.1766587270840894 0 -0.5014405794480644  0.2606453980314651 0.2606453980314651 -0.3224491190562516  0.1793299782912967 0.1793299782912967 -0.6246500569025382  2.542952674080888e-17 0.3686082568662342 -0.3224491190562394  1.749609435972772e-17 0.2536108874396318 -0.6246500569025265  -0.2606453980314651 0.2606453980314651 -0.3224491190562516  -0.1793299782912967 0.1793299782912967 -0.6246500569025382  -0.3686082568662342 2.542952674080888e-17 -0.3224491190562394  -0.2536108874396318 1.749609435972772e-17 -0.6246500569025265  -0.2606453980314651 -0.2606453980314651 -0.3224491190562516  -0.1793299782912967 -0.1793299782912967 -0.6246500569025382  -2.542952674080888e-17 -0.3686082568662342 -0.3224491190562394  -1.749609435972772e-17 -0.2536108874396318 -0.6246500569025265  0.2606453980314651 -0.2606453980314651 -0.3224491190562516  0.1793299782912967 -0.1793299782912967 -0.6246500569025382  0.1743756530083801 0.17437565300838 -0.2554056152626451  0.1249165838769436 0.1249165838769436 -0.5014405794480633  2.565411984094344e-17 0.2466044134321161 -0.2554056152626437  1.837770902997769e-17 0.1766587270840894 -0.5014405794480644  -0.1743756530083802 0.1743756530083803 -0.2554056152626436  -0.1249165838769431 0.1249165838769432 -0.5014405794480646  -0.2466044134321161 7.696235952283031e-17 -0.2554056152626437  -0.1766587270840894 5.513312708993305e-17 -0.5014405794480644  -0.1743756530083802 -0.17437565300838 -0.2554056152626445  -0.1249165838769429 -0.1249165838769428 -0.5014405794480657  -1.282705992047172e-16 -0.2466044134321161 -0.2554056152626437  -9.188854514988842e-17 -0.1766587270840894 -0.5014405794480644  0.1743756530083804 -0.1743756530083806 -0.2554056152626407  0.1249165838769432 -0.1249165838769434 -0.5014405794480641  -0.2855690901238386 -0.1182865901238386 0  -0.2855690901238385 0.1182865901238386 0  -0.1182865901238386 0.2855690901238386 -0  0.1182865901238386 0.2855690901238386 0  0.2855690901238386 0.1182865901238386 0  0.2855690901238386 -0.1182865901238386 0  0.1182865901238385 -0.2855690901238386 0  -0.1182865901238387 -0.2855690901238386 0  </DataArray>
</Points>
<Cells>
<DataArray  type="UInt32"  Name="connectivity"  format="ascii">5 6 24 52  8 9 32 57  7 8 28 50  9 10 32 56  0 4 18 54  6 7 28 51  0 10 18 55  4 5 24 53  10 18 34 55  4 18 22 54  4 22 24 53  8 28 30 50  30 42 44 50  22 23 37 39  21 22 23 37  30 31 43 45  30 31 45 47  20 34 48 55  22 36 38 53  20 22 36 54  28 40 42 51  21 34 35 49  33 34 47 49  16 17 46 56  15 16 46 57  25 26 39 41  22 24 38 53  18 20 34 55  18 20 22 54  28 30 42 50  29 30 31 43  22 23 25 39  19 21 22 23  30 31 33 47  28 29 41 43  15 42 44 50  9 32 46 57  0 18 20 55  5 24 38 52  7 28 42 51  5 24 38 53  0 18 20 54  9 32 46 56  7 28 42 50  33 34 35 49  9 16 46 57  9 16 46 56  12 36 38 53  2 11 20 54  11 12 36 53  14 15 42 50  14 40 42 51  13 14 40 51  12 13 38 52  2 17 48 55  11 20 36 54  2 20 48 55  25 26 27 41  8 30 44 50  10 34 48 55  4 22 36 54  4 22 36 53  27 28 29 41  18 21 34 35  26 27 28 41  18 19 21 35  28 29 30 43  24 25 26 39  22 24 25 39  30 32 33 47  18 19 21 22  32 33 34 47  0 2 20 54  0 2 20 55  7 14 42 50  7 14 42 51  5 12 38 52  5 12 38 53  30 43 44 45  30 44 45 47  22 36 37 39  21 22 36 37  34 47 48 49  21 34 48 49  1 3 31 33  1 3 23 25  1 3 19 23  1 3 29 31  8 15 44 50  30 42 43 44  26 39 40 41  22 36 38 39  20 21 22 36  20 21 34 48  4 11 36 54  4 11 36 53  6 13 40 51  10 17 48 55  3 31 43 45  3 23 37 39  3 31 45 47  3 21 23 37  28 41 42 43  32 44 46 47  1 3 27 29  1 3 33 35  1 3 19 35  1 3 25 27  32 46 47 48  28 40 41 42  24 38 39 40  30 32 44 47  3 33 47 49  3 21 35 49  26 28 40 41  28 30 42 43  24 26 39 40  22 24 38 39  32 34 47 48  18 20 21 22  18 20 21 34  3 29 41 43  3 25 39 41  3 29 31 43  3 23 25 39  3 31 33 47  3 19 21 23  3 33 35 49  3 27 29 41  3 25 27 41  3 19 21 35  6 24 26 40  10 32 34 48  8 30 32 44  6 26 28 40  6 28 40 51  8 15 44 46  8 15 46 57  8 32 44 46  8 32 46 57  10 17 46 56  10 17 46 48  10 32 46 56  10 32 46 48  6 13 38 52  6 13 38 40  6 24 38 52  6 24 38 40  </DataArray>
<DataArray  type="UInt32"  Name="offsets"  format="ascii">4 8 12 16 20 24 28 32 36 40 44 48 52 56 60 64 68 72 76 80 84 88 92 96 100 104 108 112 116 120 124 128 132 136 140 144 148 152 156 160 164 168 172 176 180 184 188 192 196 200 204 208 212 216 220 224 228 232 236 240 244 248 252 256 260 264 268 272 276 280 284 288 292 296 300 304 308 312 316 320 324 328 332 336 340 344 348 352 356 360 364 368 372 376 380 384 388 392 396 400 404 408 412 416 420 424 428 432 436 440 444 448 452 456 460 464 468 472 476 480 484 488 492 496 500 504 508 512 516 520 524 528 532 536 540 544 548 552 556 560 564 568 572 576 580 584 588 592 </DataArray>
<DataArray  type="UInt8"  Name="types"  format="ascii">10 10 10 10 10 10 10 10 10 10 10 10 10 10 10 10 10 10 10 10 10 10 10 10 10 10 10 10 10 10 10 10 10 10 10 10 10 10 10 10 10 10 10 10 10 10 10 10 10 10 10 10 10 10 10 10 10 10 10 10 10 10 10 10 10 10 10 10 10 10 10 10 10 10 10 10 10 10 10 10 10 10 10 10 10 10 10 10 10 10 10 10 10 10 10 10 10 10 10 10 10 10 10 10 10 10 10 10 10 10 10 10 10 10 10 10 10 10 10 10 10 10 10 10 10 10 10 10 10 10 10 10 10 10 10 10 10 10 10 10 10 10 10 10 10 10 10 10 </DataArray>
</Cells>
<PointData  Vectors="f_37-0"> 
<DataArray  type="Float64"  Name="f_37-0"  NumberOfComponents="3" format="ascii">2.8818309991826802e-02 -2.6527186479207397e-03 0.0000000000000000e+00  2.4525820764686985e-04 -1.5434186521004871e-04 -3.5331242857219919e-02  4.8842332267027895e-02 -7.4587829705745770e-03 0.0000000000000000e+00  -2.3359087285027673e-05 -2.3855428467920933e-04 -4.6328642113624703e-02  2.4706625316263286e-02 1.9468588844412413e-02 0.0000000000000000e+00  2.2643201226284215e-03 2.8320539484773814e-02 0.0000000000000000e+00  -1.9769387378597122e-02 2.4120107101521421e-02 0.0000000000000000e+00  -2.8226751406861761e-02 3.2083284770134317e-03 0.0000000000000000e+00  -2.4650570682665334e-02 -1.9720636032129028e-02 0.0000000000000000e+00  -2.8750030315220542e-03 -2.7086138281860860e-02 0.0000000000000000e+00  1.8791334634923624e-02 -2.4823457955855381e-02 0.0000000000000000e+00  4.1006105076063941e-02 3.0684837409194962e-02 0.0000000000000000e+00  7.4816373033518499e-03 4.8858893343808475e-02 0.0000000000000000e+00  -3.1083971784367795e-02 4.2237530148883137e-02 0.0000000000000000e+00  -4.8792519808594642e-02 7.3007707496130459e-03 0.0000000000000000e+00  -4.1433222848634578e-02 -3.2361428875137023e-02 0.0000000000000000e+00  -7.1481690061593883e-03 -4.9024076313316012e-02 0.0000000000000000e+00  3.0857564332889095e-02 -4.1864401030125495e-02 0.0000000000000000e+00  2.4186186890369932e-02 4.9823548461106046e-04 -2.3428803551141394e-02  7.8412589485938565e-03 4.0605085208294204e-03 -3.6929485997961371e-02  4.7782847633938891e-02 1.1187166383321745e-03 -2.2537347711547456e-02  3.0698501275418916e-02 6.4390180837268886e-03 -4.1934827663709089e-02  1.7358989062605343e-02 1.7742691829522098e-02 -2.2401307288547577e-02  2.1829183738826799e-03 8.6940001685145239e-03 -3.6791944328103586e-02  -9.9947213930451730e-04 2.4714820803533114e-02 -2.3660950511421943e-02  -6.3455621404253093e-03 8.0305701135038338e-03 -3.7795874936078340e-02  -1.9101988306558106e-02 1.5773931590276156e-02 -2.1565124643432184e-02  -8.7052410278751369e-03 1.7086282985754851e-03 -3.7744275247523135e-02  -2.5308951922573240e-02 -1.7750501149610780e-03 -2.2554784238486617e-02  -7.5555299982919379e-03 -4.0229637650067941e-03 -3.7199778399278835e-02  -1.5972476760325198e-02 -1.9318056564627900e-02 -2.1330980214002482e-02  -1.7255632032201988e-03 -9.6391447248724976e-03 -3.6586515634349726e-02  1.0320893973023736e-03 -2.5880036359650332e-02 -2.3310726900885179e-02  6.4309686914005727e-03 -8.4143766533024290e-03 -3.7815233950372458e-02  1.6977602002078158e-02 -1.7096975962497936e-02 -2.2236249957721166e-02  9.1349165410065311e-03 -2.7169344086589767e-03 -3.7749832936095518e-02  3.4454141209508689e-02 3.5245890364008554e-02 -2.3260687979565015e-02  1.7655927217957661e-02 2.6007577702585691e-02 -4.2790136931155402e-02  -1.0267546192581252e-03 4.8474556926595420e-02 -2.2895178520305665e-02  -5.6716700204719082e-03 3.1211887738529762e-02 -4.2210660790203865e-02  -3.3716715922730928e-02 3.3119459585130726e-02 -2.2540723268430256e-02  -2.5654827233158602e-02 1.6655848771058652e-02 -4.2066290637140118e-02  -4.8795469931073060e-02 -7.0775861148781411e-04 -2.3057063307686261e-02  -3.0775122458464067e-02 -6.7454358976344287e-03 -4.2329752409840778e-02  -3.3900801743661224e-02 -3.4273163903012778e-02 -2.3121208449474431e-02  -1.7292971037280593e-02 -2.5607102382922256e-02 -4.2748950968013719e-02  6.8283916931806193e-04 -4.9050943039322843e-02 -2.2815439790596737e-02  5.8026362255100333e-03 -3.1723047950266439e-02 -4.2327866764426084e-02  3.4805524730993111e-02 -3.3917480950060287e-02 -2.2918674242792422e-02  2.5581351929167561e-02 -1.7417136565804448e-02 -4.2729193624805845e-02  -4.1151808946671822e-02 -1.1518381000460503e-02 0.0000000000000000e+00  -3.6533793915585352e-02 2.0514173096201033e-02 0.0000000000000000e+00  -1.1887291623332833e-02 4.0014781704414984e-02 0.0000000000000000e+00  2.0617155032027223e-02 3.7146642403439865e-02 0.0000000000000000e+00  4.0617102920538092e-02 1.1413351532606376e-02 0.0000000000000000e+00  3.6926089598021898e-02 -2.0660925292895854e-02 0.0000000000000000e+00  1.1501612543695130e-02 -3.9681637415367385e-02 0.0000000000000000e+00  -2.0433606518828445e-02 -3.6452151101784500e-02 0.0000000000000000e+00  </DataArray> 
</PointData> 
</Piece>
</UnstructuredGrid>
</VTKFile>