<?xml version="1.0"?>
<VTKFile type="UnstructuredGrid"  version="0.1"  >
<UnstructuredGrid>
<Piece  NumberOfPoints="58" NumberOfCells="148">
<Points>
<DataArray  type="Float64"  NumberOfComponents="3"  format="ascii">0.4023249999999999 0 0  0 0 -0.8046499999999999  0.266805 0 0  0 0 -0.6691299999999999  0.2844867357408777 0.2844867357408777 0  2.775557561562891e-17 0.4023249999999999 0  -0.2844867357408777 0.2844867357408777 0  -0.4023249999999999 2.775557561562891e-17 0  -0.2844867357408777 -0.2844867357408777 0  -2.775557561562891e-17 -0.4023249999999999 0  0.2844867357408777 -0.2844867357408777 0  0.1886596247544768 0.1886596247544768 0  2.775557561562891e-17 0.266805 0  -0.1886596247544767 0.1886596247544768 0  -0.266805 8.326672684688674e-17 0  -0.1886596247544768 -0.1886596247544767 0  -1.387778780781446e-16 -0.266805 0  0.1886596247544766 -0.1886596247544769 0  0.3686082568662342 0 -0.3224491190562394  0.2536108874396318 0 -0.6246500569025265  0.2466044134321161 0 -0.2554056152626437  0.1766587270840894 0 -0.5014405794480644  0.2606453980314651 0.2606453980314651 -0.3224491190562516  0.1793299782912967 0.1793299782912967 -0.6246500569025382  2.542952674080888e-17 0.3686082568662342 -0.3224491190562394  1.749609435972772e-17 0.2536108874396318 -0.6246500569025265  -0.2606453980314651 0.2606453980314651 -0.3224491190562516  -0.1793299782912967 0.1793299782912967 -0.6246500569025382  -0.3686082568662342 2.542952674080888e-17 -0.3224491190562394  -0.2536108874396318 1.749609435972772e-17 -0.6246500569025265  -0.2606453980314651 -0.2606453980314651 -0.3224491190562516  -0.1793299782912967 -0.1793299782912967 -0.6246500569025382  -2.542952674080888e-17 -0.3686082568662342 -0.3224491190562394  -1.749609435972772e-17 -0.2536108874396318 -0.6246500569025265  0.2606453980314651 -0.2606453980314651 -0.3224491190562516  0.1793299782912967 -0.1793299782912967 -0.6246500569025382  0.1743756530083801 0.17437565300838 -0.2554056152626451  0.1249165838769436 0.1249165838769436 -0.5014405794480633  2.565411984094344e-17 0.2466044134321161 -0.2554056152626437  1.837770902997769e-17 0.1766587270840894 -0.5014405794480644  -0.1743756530083802 0.1743756530083803 -0.2554056152626436  -0.1249165838769431 0.1249165838769432 -0.5014405794480646  -0.2466044134321161 7.696235952283031e-17 -0.2554056152626437  -0.1766587270840894 5.513312708993305e-17 -0.5014405794480644  -0.1743756530083802 -0.17437565300838 -0.2554056152626445  -0.1249165838769429 -0.1249165838769428 -0.5014405794480657  -1.282705992047172e-16 -0.2466044134321161 -0.2554056152626437  -9.188854514988842e-17 -0.1766587270840894 -0.5014405794480644  0.1743756530083804 -0.1743756530083806 -0.2554056152626407  0.1249165838769432 -0.1249165838769434 -0.5014405794480641  -0.2855690901238386 -0.1182865901238386 0  -0.2855690901238385 0.1182865901238386 0  -0.1182865901238386 0.2855690901238386 -0  0.1182865901238386 0.2855690901238386 0  0.2855690901238386 0.1182865901238386 0  0.2855690901238386 -0.1182865901238386 0  0.1182865901238385 -0.2855690901238386 0  -0.1182865901238387 -0.2855690901238386 0  </DataArray>
</Points>
<Cells>
<DataArray  type="UInt32"  Name="connectivity"  format="ascii">5 6 24 52  8 9 32 57  7 8 28 50  9 10 32 56  0 4 18 54  6 7 28 51  0 10 18 55  4 5 24 53  10 18 34 55  4 18 22 54  4 22 24 53  8 28 30 50  30 42 44 50  22 23 37 39  21 22 23 37  30 31 43 45  30 31 45 47  20 34 48 55  22 36 38 53  20 22 36 54  28 40 42 51  21 34 35 49  33 34 47 49  16 17 46 56  15 16 46 57  25 26 39 41  22 24 38 53  18 20 34 55  18 20 22 54  28 30 42 50  29 30 31 43  22 23 25 39  19 21 22 23  30 31 33 47  28 29 41 43  15 42 44 50  9 32 46 57  0 18 20 55  5 24 38 52  7 28 42 51  5 24 38 53  0 18 20 54  9 32 46 56  7 28 42 50  33 34 35 49  9 16 46 57  9 16 46 56  12 36 38 53  2 11 20 54  11 12 36 53  14 15 42 50  14 40 42 51  13 14 40 51  12 13 38 52  2 17 48 55  11 20 36 54  2 20 48 55  25 26 27 41  8 30 44 50  10 34 48 55  4 22 36 54  4 22 36 53  27 28 29 41  18 21 34 35  26 27 28 41  18 19 21 35  28 29 30 43  24 25 26 39  22 24 25 39  30 32 33 47  18 19 21 22  32 33 34 47  0 2 20 54  0 2 20 55  7 14 42 50  7 14 42 51  5 12 38 52  5 12 38 53  30 43 44 45  30 44 45 47  22 36 37 39  21 22 36 37  34 47 48 49  21 34 48 49  1 3 31 33  1 3 23 25  1 3 19 23  1 3 29 31  8 15 44 50  30 42 43 44  26 39 40 41  22 36 38 39  20 21 22 36  20 21 34 48  4 11 36 54  4 11 36 53  6 13 40 51  10 17 48 55  3 31 43 45  3 23 37 39  3 31 45 47  3 21 23 37  28 41 42 43  32 44 46 47  1 3 27 29  1 3 33 35  1 3 19 35  1 3 25 27  32 46 47 48  28 40 41 42  24 38 39 40  30 32 44 47  3 33 47 49  3 21 35 49  26 28 40 41  28 30 42 43  24 26 39 40  22 24 38 39  32 34 47 48  18 20 21 22  18 20 21 34  3 29 41 43  3 25 39 41  3 29 31 43  3 23 25 39  3 31 33 47  3 19 21 23  3 33 35 49  3 27 29 41  3 25 27 41  3 19 21 35  6 24 26 40  10 32 34 48  8 30 32 44  6 26 28 40  6 28 40 51  8 15 44 46  8 15 46 57  8 32 44 46  8 32 46 57  10 17 46 56  10 17 46 48  10 32 46 56  10 32 46 48  6 13 38 52  6 13 38 40  6 24 38 52  6 24 38 40  </DataArray>
<DataArray  type="UInt32"  Name="offsets"  format="ascii">4 8 12 16 20 24 28 32 36 40 44 48 52 56 60 64 68 72 76 80 84 88 92 96 100 104 108 112 116 120 124 128 132 136 140 144 148 152 156 160 164 168 172 176 180 184 188 192 196 200 204 208 212 216 220 224 228 232 236 240 244 248 252 256 260 264 268 272 276 280 284 288 292 296 300 304 308 312 316 320 324 328 332 336 340 344 348 352 356 360 364 368 372 376 380 384 388 392 396 400 404 408 412 416 420 424 428 432 436 440 444 448 452 456 460 464 468 472 476 480 484 488 492 496 500 504 508 512 516 520 524 528 532 536 540 544 548 552 556 560 564 568 572 576 580 584 588 592 </DataArray>
<DataArray  type="UInt8"  Name="types"  format="ascii">10 10 10 10 10 10 10 10 10 10 10 10 10 10 10 10 10 10 10 10 10 10 10 10 10 10 10 10 10 10 10 10 10 10 10 10 10 10 10 10 10 10 10 10 10 10 10 10 10 10 10 10 10 10 10 10 10 10 10 10 10 10 10 10 10 10 10 10 10 10 10 10 10 10 10 10 10 10 10 10 10 10 10 10 10 10 10 10 10 10 10 10 10 10 10 10 10 10 10 10 10 10 10 10 10 10 10 10 10 10 10 10 10 10 10 10 10 10 10 10 10 10 10 10 10 10 10 10 10 10 10 10 10 10 10 10 10 10 10 10 10 10 10 10 10 10 10 10 </DataArray>
</Cells>
<PointData  Vectors="f_37-0"> 
<DataArray  type="Float64"  Name="f_37-0"  NumberOfComponents="3" format="ascii">2.3932561552266689e-02 -1.2509692713018114e-02 0.0000000000000000e+00  -2.7511425863548978e-04 1.7185042341240646e-04 -2.5697305085784435e-02  4.0029810855111134e-02 -1.0888108710721638e-02 0.0000000000000000e+00  2.8353322317031705e-05 3.4995949382114042e-06 -3.2285952886109297e-02  2.8179645753239023e-02 9.6853857749848362e-03 0.0000000000000000e+00  1.2670180035303999e-02 2.4330698722526353e-02 0.0000000000000000e+00  -9.2732449256737997e-03 2.7888724144671598e-02 0.0000000000000000e+00  -2.3776068183441707e-02 1.3018655021227317e-02 0.0000000000000000e+00  -2.8019399304414480e-02 -9.9398179177967016e-03 0.0000000000000000e+00  -1.3037236883452881e-02 -2.2983390660021176e-02 0.0000000000000000e+00  8.6421044942378549e-03 -2.7598318768357406e-02 0.0000000000000000e+00  3.7468911490724920e-02 2.2054114539456871e-02 0.0000000000000000e+00  1.1152297152308087e-02 4.0232009574522019e-02 0.0000000000000000e+00  -2.1877118601390404e-02 3.8261999193342069e-02 0.0000000000000000e+00  -4.0121358073222688e-02 1.0853487042678437e-02 0.0000000000000000e+00  -3.7773048204664435e-02 -2.3236627154705130e-02 0.0000000000000000e+00  -1.0551791931881604e-02 -4.0294302214357702e-02 0.0000000000000000e+00  2.1802610816293606e-02 -3.7893283272350024e-02 0.0000000000000000e+00  2.0809290357718811e-02 3.3538036888216445e-03 -1.8233101413941851e-02  6.0121620872219056e-03 1.3635550291232928e-02 -2.8091118013090933e-02  3.9418193622923314e-02 1.6579307673074300e-03 -1.6934267669993765e-02  2.4294654395511449e-02 1.1028113278497221e-02 -3.0668459594836901e-02  1.3083288763201308e-02 1.7335526845202277e-02 -1.7184982802441240e-02  -5.3414342468445335e-03 1.3970448977446556e-02 -2.7913048362439297e-02  -3.7899043048654855e-03 2.1204064260234710e-02 -1.7768040752863742e-02  -1.4984512274724311e-02 5.4511078781180906e-03 -2.8019001463949211e-02  -1.7821317662236189e-02 1.1431883646375339e-02 -1.6346405748657450e-02  -1.3966861550083740e-02 -5.7186183229063535e-03 -2.7918532678252634e-02  -2.1662568789365195e-02 -4.1678944735971772e-03 -1.7544579527295868e-02  -5.7217242218729706e-03 -1.3147737545646205e-02 -2.8281960101611901e-02  -1.1508702593672007e-02 -1.7883352436969341e-02 -1.6489980142069875e-02  5.7643693105289533e-03 -1.4088838061241456e-02 -2.7798803187552810e-02  3.7421813355344247e-03 -2.1575435095597187e-02 -1.7726488226363385e-02  1.5204357802761526e-02 -5.6222236862880619e-03 -2.8485912526823389e-02  1.7245214923277075e-02 -1.2483240249753313e-02 -1.7255519856477303e-02  1.3987816579437925e-02 5.2526922550547774e-03 -2.8309027632766989e-02  2.7785714812515093e-02 2.9513879404008111e-02 -1.7562066765047724e-02  1.0085023650256167e-02 2.4891007481488158e-02 -3.1374427561743981e-02  -1.4532900841739932e-03 3.9976871935230571e-02 -1.7128561650697399e-02  -1.0302202420638836e-02 2.4700437247213314e-02 -3.1040100640506503e-02  -2.8480696198383084e-02 2.6665288701042591e-02 -1.7009677683651980e-02  -2.4449664118697638e-02 9.0123950435195832e-03 -3.0773733044452245e-02  -4.0165227647023821e-02 -1.3101175261357476e-03 -1.7448499937801010e-02  -2.4532283966491885e-02 -1.1098894119213779e-02 -3.0952738474890912e-02  -2.7601021435059075e-02 -2.9057137665891821e-02 -1.7550153828134216e-02  -9.8378822592331827e-03 -2.4474787478481249e-02 -3.1828836669852603e-02  1.1356425577197344e-03 -4.0780789680980749e-02 -1.7579923182664825e-02  1.0467796342196850e-02 -2.4983962417904418e-02 -3.1512208916717473e-02  2.9112836511480628e-02 -2.7177941939361395e-02 -1.7566470262858701e-02  2.4449075720921105e-02 -9.5314831601821075e-03 -3.1804483916107337e-02  -3.6632107572866085e-02 -3.3205777027415927e-03 0.0000000000000000e+00  -2.7492311384030649e-02 2.2900009622138624e-02 0.0000000000000000e+00  -3.4755986373520530e-03 3.6015539275849301e-02 0.0000000000000000e+00  2.3290515523172534e-02 2.8241416307666183e-02 0.0000000000000000e+00  3.6121719594503048e-02 3.4051728138406183e-03 0.0000000000000000e+00  2.7861464319883910e-02 -2.3051088094734131e-02 0.0000000000000000e+00  3.3204976846598860e-03 -3.5433554841610863e-02 0.0000000000000000e+00  -2.3177503226836167e-02 -2.7610618257599071e-02 0.0000000000000000e+00  </DataArray> 
</PointData> 
</Piece>
</UnstructuredGrid>
</VTKFile>