<?xml version="1.0"?>
<VTKFile type="UnstructuredGrid"  version="0.1"  >
<UnstructuredGrid>
<Piece  NumberOfPoints="58" NumberOfCells="148">
<Points>
<DataArray  type="Float64"  NumberOfComponents="3"  format="ascii">0.4023249999999999 0 0  0 0 -0.8046499999999999  0.266805 0 0  0 0 -0.6691299999999999  0.2844867357408777 0.2844867357408777 0  2.775557561562891e-17 0.4023249999999999 0  -0.2844867357408777 0.2844867357408777 0  -0.4023249999999999 2.775557561562891e-17 0  -0.2844867357408777 -0.2844867357408777 0  -2.775557561562891e-17 -0.4023249999999999 0  0.2844867357408777 -0.2844867357408777 0  0.1886596247544768 0.1886596247544768 0  2.775557561562891e-17 0.266805 0  -0.1886596247544767 0.1886596247544768 0  -0.266805 8.326672684688674e-17 0  -0.1886596247544768 -0.1886596247544767 0  -1.387778780781446e-16 -0.266805 0  0.1886596247544766 -0.1886596247544769 0  0.3686082568662342 0 -0.3224491190562394  0.2536108874396318 0 -0.6246500569025265  0.2466044134321161 0 -0.2554056152626437  0.1766587270840894 0 -0.5014405794480644  0.2606453980314651 0.2606453980314651 -0.3224491190562516  0.1793299782912967 0.1793299782912967 -0.6246500569025382  2.542952674080888e-17 0.3686082568662342 -0.3224491190562394  1.749609435972772e-17 0.2536108874396318 -0.6246500569025265  -0.2606453980314651 0.2606453980314651 -0.3224491190562516  -0.1793299782912967 0.1793299782912967 -0.6246500569025382  -0.3686082568662342 2.542952674080888e-17 -0.3224491190562394  -0.2536108874396318 1.749609435972772e-17 -0.6246500569025265  -0.2606453980314651 -0.2606453980314651 -0.3224491190562516  -0.1793299782912967 -0.1793299782912967 -0.6246500569025382  -2.542952674080888e-17 -0.3686082568662342 -0.3224491190562394  -1.749609435972772e-17 -0.2536108874396318 -0.6246500569025265  0.2606453980314651 -0.2606453980314651 -0.3224491190562516  0.1793299782912967 -0.1793299782912967 -0.6246500569025382  0.1743756530083801 0.17437565300838 -0.2554056152626451  0.1249165838769436 0.1249165838769436 -0.5014405794480633  2.565411984094344e-17 0.2466044134321161 -0.2554056152626437  1.837770902997769e-17 0.1766587270840894 -0.5014405794480644  -0.1743756530083802 0.1743756530083803 -0.2554056152626436  -0.1249165838769431 0.1249165838769432 -0.5014405794480646  -0.2466044134321161 7.696235952283031e-17 -0.2554056152626437  -0.1766587270840894 5.513312708993305e-17 -0.5014405794480644  -0.1743756530083802 -0.17437565300838 -0.2554056152626445  -0.1249165838769429 -0.1249165838769428 -0.5014405794480657  -1.282705992047172e-16 -0.2466044134321161 -0.2554056152626437  -9.188854514988842e-17 -0.1766587270840894 -0.5014405794480644  0.1743756530083804 -0.1743756530083806 -0.2554056152626407  0.1249165838769432 -0.1249165838769434 -0.5014405794480641  -0.2855690901238386 -0.1182865901238386 0  -0.2855690901238385 0.1182865901238386 0  -0.1182865901238386 0.2855690901238386 -0  0.1182865901238386 0.2855690901238386 0  0.2855690901238386 0.1182865901238386 0  0.2855690901238386 -0.1182865901238386 0  0.1182865901238385 -0.2855690901238386 0  -0.1182865901238387 -0.2855690901238386 0  </DataArray>
</Points>
<Cells>
<DataArray  type="UInt32"  Name="connectivity"  format="ascii">5 6 24 52  8 9 32 57  7 8 28 50  9 10 32 56  0 4 18 54  6 7 28 51  0 10 18 55  4 5 24 53  10 18 34 55  4 18 22 54  4 22 24 53  8 28 30 50  30 42 44 50  22 23 37 39  21 22 23 37  30 31 43 45  30 31 45 47  20 34 48 55  22 36 38 53  20 22 36 54  28 40 42 51  21 34 35 49  33 34 47 49  16 17 46 56  15 16 46 57  25 26 39 41  22 24 38 53  18 20 34 55  18 20 22 54  28 30 42 50  29 30 31 43  22 23 25 39  19 21 22 23  30 31 33 47  28 29 41 43  15 42 44 50  9 32 46 57  0 18 20 55  5 24 38 52  7 28 42 51  5 24 38 53  0 18 20 54  9 32 46 56  7 28 42 50  33 34 35 49  9 16 46 57  9 16 46 56  12 36 38 53  2 11 20 54  11 12 36 53  14 15 42 50  14 40 42 51  13 14 40 51  12 13 38 52  2 17 48 55  11 20 36 54  2 20 48 55  25 26 27 41  8 30 44 50  10 34 48 55  4 22 36 54  4 22 36 53  27 28 29 41  18 21 34 35  26 27 28 41  18 19 21 35  28 29 30 43  24 25 26 39  22 24 25 39  30 32 33 47  18 19 21 22  32 33 34 47  0 2 20 54  0 2 20 55  7 14 42 50  7 14 42 51  5 12 38 52  5 12 38 53  30 43 44 45  30 44 45 47  22 36 37 39  21 22 36 37  34 47 48 49  21 34 48 49  1 3 31 33  1 3 23 25  1 3 19 23  1 3 29 31  8 15 44 50  30 42 43 44  26 39 40 41  22 36 38 39  20 21 22 36  20 21 34 48  4 11 36 54  4 11 36 53  6 13 40 51  10 17 48 55  3 31 43 45  3 23 37 39  3 31 45 47  3 21 23 37  28 41 42 43  32 44 46 47  1 3 27 29  1 3 33 35  1 3 19 35  1 3 25 27  32 46 47 48  28 40 41 42  24 38 39 40  30 32 44 47  3 33 47 49  3 21 35 49  26 28 40 41  28 30 42 43  24 26 39 40  22 24 38 39  32 34 47 48  18 20 21 22  18 20 21 34  3 29 41 43  3 25 39 41  3 29 31 43  3 23 25 39  3 31 33 47  3 19 21 23  3 33 35 49  3 27 29 41  3 25 27 41  3 19 21 35  6 24 26 40  10 32 34 48  8 30 32 44  6 26 28 40  6 28 40 51  8 15 44 46  8 15 46 57  8 32 44 46  8 32 46 57  10 17 46 56  10 17 46 48  10 32 46 56  10 32 46 48  6 13 38 52  6 13 38 40  6 24 38 52  6 24 38 40  </DataArray>
<DataArray  type="UInt32"  Name="offsets"  format="ascii">4 8 12 16 20 24 28 32 36 40 44 48 52 56 60 64 68 72 76 80 84 88 92 96 100 104 108 112 116 120 124 128 132 136 140 144 148 152 156 160 164 168 172 176 180 184 188 192 196 200 204 208 212 216 220 224 228 232 236 240 244 248 252 256 260 264 268 272 276 280 284 288 292 296 300 304 308 312 316 320 324 328 332 336 340 344 348 352 356 360 364 368 372 376 380 384 388 392 396 400 404 408 412 416 420 424 428 432 436 440 444 448 452 456 460 464 468 472 476 480 484 488 492 496 500 504 508 512 516 520 524 528 532 536 540 544 548 552 556 560 564 568 572 576 580 584 588 592 </DataArray>
<DataArray  type="UInt8"  Name="types"  format="ascii">10 10 10 10 10 10 10 10 10 10 10 10 10 10 10 10 10 10 10 10 10 10 10 10 10 10 10 10 10 10 10 10 10 10 10 10 10 10 10 10 10 10 10 10 10 10 10 10 10 10 10 10 10 10 10 10 10 10 10 10 10 10 10 10 10 10 10 10 10 10 10 10 10 10 10 10 10 10 10 10 10 10 10 10 10 10 10 10 10 10 10 10 10 10 10 10 10 10 10 10 10 10 10 10 10 10 10 10 10 10 10 10 10 10 10 10 10 10 10 10 10 10 10 10 10 10 10 10 10 10 10 10 10 10 10 10 10 10 10 10 10 10 10 10 10 10 10 10 </DataArray>
</Cells>
<PointData  Vectors="f_37-0"> 
<DataArray  type="Float64"  Name="f_37-0"  NumberOfComponents="3" format="ascii">3.1178305081979895e-02 9.6343244021266348e-04 0.0000000000000000e+00  -8.0258113259477936e-04 3.1356694535057839e-05 -2.8538652459704821e-02  5.2689061804425959e-02 -1.3080095087988380e-02 0.0000000000000000e+00  -2.8736155049967371e-04 -8.5185677174980676e-04 -4.3047152744848008e-02  2.5849562910693621e-02 2.3265735521787397e-02 0.0000000000000000e+00  -2.6440097243180368e-04 2.8799028964042416e-02 0.0000000000000000e+00  -2.3510997561972849e-02 2.2841537627683678e-02 0.0000000000000000e+00  -3.0104350077919902e-02 8.6731477570107325e-04 0.0000000000000000e+00  -2.6664212269375282e-02 -2.0291208359829335e-02 0.0000000000000000e+00  8.8743432044000015e-04 -2.8325182035230705e-02 0.0000000000000000e+00  2.3198548081796614e-02 -2.3398390127379119e-02 0.0000000000000000e+00  4.8729505321391656e-02 2.9655086189072501e-02 0.0000000000000000e+00  1.3593819191777639e-02 5.1893020519429171e-02 0.0000000000000000e+00  -2.9903585808785320e-02 4.9695475894758902e-02 0.0000000000000000e+00  -5.2467602957406774e-02 1.2873205991021732e-02 0.0000000000000000e+00  -4.9160057037097769e-02 -3.2332146104013568e-02 0.0000000000000000e+00  -1.3503372984461677e-02 -5.1991133296332509e-02 0.0000000000000000e+00  3.0135451026519579e-02 -4.9271702479570176e-02 0.0000000000000000e+00  2.7799582372429792e-02 6.6499415540478878e-04 -2.5024400812616220e-02  7.1888940114263793e-03 -1.1277489414625342e-04 -3.8650708804420161e-02  5.5291291986657373e-02 9.6185475806046048e-04 -2.4804603516563176e-02  3.6106676108865129e-02 9.9949526388469993e-03 -4.4974380733197913e-02  2.1261065559725043e-02 1.8777927531661125e-02 -2.3940703918007865e-02  4.9549864654531289e-03 5.0534631113043765e-03 -3.7880209099398723e-02  3.2856410786917005e-03 2.8419996371106614e-02 -2.6633066666026734e-02  -1.8565239525675111e-03 8.4554059640441839e-03 -3.8879205188969826e-02  -1.7408662624516642e-02 2.0732816891752524e-02 -2.3884224217554061e-02  -5.1870987465365620e-03 4.7810796363707371e-03 -3.8794953079918364e-02  -2.8368229489683323e-02 -1.0635531477021769e-03 -2.4062630675663842e-02  -6.9227830784825721e-03 3.9705069346990322e-04 -3.8047288320931107e-02  -2.0436765674526285e-02 -2.0295503716577814e-02 -2.2839044625752935e-02  -5.9354130391618930e-03 -6.3098628380837607e-03 -3.7707824589830484e-02  -3.6735916148312960e-03 -2.9675370875712918e-02 -2.5903222728307411e-02  7.7424098609089160e-04 -9.2517198516401233e-03 -3.8778570457846689e-02  1.6643379100092733e-02 -2.0958730395361926e-02 -2.4309696967270315e-02  4.7653291081257510e-03 -6.8366736276306945e-03 -3.9265677649262899e-02  4.0142888993330260e-02 4.0346819929019673e-02 -2.5828620246925362e-02  1.8241322037100074e-02 3.1501515819514291e-02 -4.5880072117892370e-02  -6.2871315700687997e-04 5.5766542102668550e-02 -2.5101879849521197e-02  -9.5865657469292303e-03 3.6071787100812006e-02 -4.5349091989453680e-02  -3.7991299833554017e-02 3.7692266651855801e-02 -2.4779768194132541e-02  -3.1510658374858044e-02 1.6886380759867502e-02 -4.5009689921962713e-02  -5.6088758178937020e-02 -9.4085325165070501e-04 -2.4962602337143428e-02  -3.6169179548025995e-02 -1.0946393520690312e-02 -4.5035939062958233e-02  -3.9976050274651197e-02 -3.9574134092491504e-02 -2.5285604699460965e-02  -1.8515232398450713e-02 -3.1597767053265967e-02 -4.5502817669522758e-02  9.3547731740772347e-04 -5.6618698738644002e-02 -2.5100676320134047e-02  9.2802220287007426e-03 -3.7177661523317418e-02 -4.5225396133973021e-02  3.9461768246519813e-02 -3.8599287576276745e-02 -2.5183701256722847e-02  3.0263274976728725e-02 -1.7581818968331626e-02 -4.5418368151999580e-02  -5.0040760638846681e-02 -1.2061186507605792e-02 0.0000000000000000e+00  -4.1829159215278369e-02 2.6017157206017202e-02 0.0000000000000000e+00  -1.2272686209788082e-02 4.6759902696294736e-02 0.0000000000000000e+00  2.6794842969760362e-02 4.3722467828194292e-02 0.0000000000000000e+00  4.9278356273723616e-02 1.2171950608906570e-02 0.0000000000000000e+00  4.2932404619970943e-02 -2.5990644925763723e-02 0.0000000000000000e+00  1.2155036808863611e-02 -4.6788096655520812e-02 0.0000000000000000e+00  -2.5645191245445152e-02 -4.1987385925797205e-02 0.0000000000000000e+00  </DataArray> 
</PointData> 
</Piece>
</UnstructuredGrid>
</VTKFile>