<?xml version="1.0"?>
<VTKFile type="UnstructuredGrid"  version="0.1"  >
<UnstructuredGrid>
<Piece  NumberOfPoints="58" NumberOfCells="148">
<Points>
<DataArray  type="Float64"  NumberOfComponents="3"  format="ascii">0.4023249999999999 0 0  0 0 -0.8046499999999999  0.266805 0 0  0 0 -0.6691299999999999  0.2844867357408777 0.2844867357408777 0  2.775557561562891e-17 0.4023249999999999 0  -0.2844867357408777 0.2844867357408777 0  -0.4023249999999999 2.775557561562891e-17 0  -0.2844867357408777 -0.2844867357408777 0  -2.775557561562891e-17 -0.4023249999999999 0  0.2844867357408777 -0.2844867357408777 0  0.1886596247544768 0.1886596247544768 0  2.775557561562891e-17 0.266805 0  -0.1886596247544767 0.1886596247544768 0  -0.266805 8.326672684688674e-17 0  -0.1886596247544768 -0.1886596247544767 0  -1.387778780781446e-16 -0.266805 0  0.1886596247544766 -0.1886596247544769 0  0.3686082568662342 0 -0.3224491190562394  0.2536108874396318 0 -0.6246500569025265  0.2466044134321161 0 -0.2554056152626437  0.1766587270840894 0 -0.5014405794480644  0.2606453980314651 0.2606453980314651 -0.3224491190562516  0.1793299782912967 0.1793299782912967 -0.6246500569025382  2.542952674080888e-17 0.3686082568662342 -0.3224491190562394  1.749609435972772e-17 0.2536108874396318 -0.6246500569025265  -0.2606453980314651 0.2606453980314651 -0.3224491190562516  -0.1793299782912967 0.1793299782912967 -0.6246500569025382  -0.3686082568662342 2.542952674080888e-17 -0.3224491190562394  -0.2536108874396318 1.749609435972772e-17 -0.6246500569025265  -0.2606453980314651 -0.2606453980314651 -0.3224491190562516  -0.1793299782912967 -0.1793299782912967 -0.6246500569025382  -2.542952674080888e-17 -0.3686082568662342 -0.3224491190562394  -1.749609435972772e-17 -0.2536108874396318 -0.6246500569025265  0.2606453980314651 -0.2606453980314651 -0.3224491190562516  0.1793299782912967 -0.1793299782912967 -0.6246500569025382  0.1743756530083801 0.17437565300838 -0.2554056152626451  0.1249165838769436 0.1249165838769436 -0.5014405794480633  2.565411984094344e-17 0.2466044134321161 -0.2554056152626437  1.837770902997769e-17 0.1766587270840894 -0.5014405794480644  -0.1743756530083802 0.1743756530083803 -0.2554056152626436  -0.1249165838769431 0.1249165838769432 -0.5014405794480646  -0.2466044134321161 7.696235952283031e-17 -0.2554056152626437  -0.1766587270840894 5.513312708993305e-17 -0.5014405794480644  -0.1743756530083802 -0.17437565300838 -0.2554056152626445  -0.1249165838769429 -0.1249165838769428 -0.5014405794480657  -1.282705992047172e-16 -0.2466044134321161 -0.2554056152626437  -9.188854514988842e-17 -0.1766587270840894 -0.5014405794480644  0.1743756530083804 -0.1743756530083806 -0.2554056152626407  0.1249165838769432 -0.1249165838769434 -0.5014405794480641  -0.2855690901238386 -0.1182865901238386 0  -0.2855690901238385 0.1182865901238386 0  -0.1182865901238386 0.2855690901238386 -0  0.1182865901238386 0.2855690901238386 0  0.2855690901238386 0.1182865901238386 0  0.2855690901238386 -0.1182865901238386 0  0.1182865901238385 -0.2855690901238386 0  -0.1182865901238387 -0.2855690901238386 0  </DataArray>
</Points>
<Cells>
<DataArray  type="UInt32"  Name="connectivity"  format="ascii">5 6 24 52  8 9 32 57  7 8 28 50  9 10 32 56  0 4 18 54  6 7 28 51  0 10 18 55  4 5 24 53  10 18 34 55  4 18 22 54  4 22 24 53  8 28 30 50  30 42 44 50  22 23 37 39  21 22 23 37  30 31 43 45  30 31 45 47  20 34 48 55  22 36 38 53  20 22 36 54  28 40 42 51  21 34 35 49  33 34 47 49  16 17 46 56  15 16 46 57  25 26 39 41  22 24 38 53  18 20 34 55  18 20 22 54  28 30 42 50  29 30 31 43  22 23 25 39  19 21 22 23  30 31 33 47  28 29 41 43  15 42 44 50  9 32 46 57  0 18 20 55  5 24 38 52  7 28 42 51  5 24 38 53  0 18 20 54  9 32 46 56  7 28 42 50  33 34 35 49  9 16 46 57  9 16 46 56  12 36 38 53  2 11 20 54  11 12 36 53  14 15 42 50  14 40 42 51  13 14 40 51  12 13 38 52  2 17 48 55  11 20 36 54  2 20 48 55  25 26 27 41  8 30 44 50  10 34 48 55  4 22 36 54  4 22 36 53  27 28 29 41  18 21 34 35  26 27 28 41  18 19 21 35  28 29 30 43  24 25 26 39  22 24 25 39  30 32 33 47  18 19 21 22  32 33 34 47  0 2 20 54  0 2 20 55  7 14 42 50  7 14 42 51  5 12 38 52  5 12 38 53  30 43 44 45  30 44 45 47  22 36 37 39  21 22 36 37  34 47 48 49  21 34 48 49  1 3 31 33  1 3 23 25  1 3 19 23  1 3 29 31  8 15 44 50  30 42 43 44  26 39 40 41  22 36 38 39  20 21 22 36  20 21 34 48  4 11 36 54  4 11 36 53  6 13 40 51  10 17 48 55  3 31 43 45  3 23 37 39  3 31 45 47  3 21 23 37  28 41 42 43  32 44 46 47  1 3 27 29  1 3 33 35  1 3 19 35  1 3 25 27  32 46 47 48  28 40 41 42  24 38 39 40  30 32 44 47  3 33 47 49  3 21 35 49  26 28 40 41  28 30 42 43  24 26 39 40  22 24 38 39  32 34 47 48  18 20 21 22  18 20 21 34  3 29 41 43  3 25 39 41  3 29 31 43  3 23 25 39  3 31 33 47  3 19 21 23  3 33 35 49  3 27 29 41  3 25 27 41  3 19 21 35  6 24 26 40  10 32 34 48  8 30 32 44  6 26 28 40  6 28 40 51  8 15 44 46  8 15 46 57  8 32 44 46  8 32 46 57  10 17 46 56  10 17 46 48  10 32 46 56  10 32 46 48  6 13 38 52  6 13 38 40  6 24 38 52  6 24 38 40  </DataArray>
<DataArray  type="UInt32"  Name="offsets"  format="ascii">4 8 12 16 20 24 28 32 36 40 44 48 52 56 60 64 68 72 76 80 84 88 92 96 100 104 108 112 116 120 124 128 132 136 140 144 148 152 156 160 164 168 172 176 180 184 188 192 196 200 204 208 212 216 220 224 228 232 236 240 244 248 252 256 260 264 268 272 276 280 284 288 292 296 300 304 308 312 316 320 324 328 332 336 340 344 348 352 356 360 364 368 372 376 380 384 388 392 396 400 404 408 412 416 420 424 428 432 436 440 444 448 452 456 460 464 468 472 476 480 484 488 492 496 500 504 508 512 516 520 524 528 532 536 540 544 548 552 556 560 564 568 572 576 580 584 588 592 </DataArray>
<DataArray  type="UInt8"  Name="types"  format="ascii">10 10 10 10 10 10 10 10 10 10 10 10 10 10 10 10 10 10 10 10 10 10 10 10 10 10 10 10 10 10 10 10 10 10 10 10 10 10 10 10 10 10 10 10 10 10 10 10 10 10 10 10 10 10 10 10 10 10 10 10 10 10 10 10 10 10 10 10 10 10 10 10 10 10 10 10 10 10 10 10 10 10 10 10 10 10 10 10 10 10 10 10 10 10 10 10 10 10 10 10 10 10 10 10 10 10 10 10 10 10 10 10 10 10 10 10 10 10 10 10 10 10 10 10 10 10 10 10 10 10 10 10 10 10 10 10 10 10 10 10 10 10 10 10 10 10 10 10 </DataArray>
</Cells>
<PointData  Vectors="f_37-0"> 
<DataArray  type="Float64"  Name="f_37-0"  NumberOfComponents="3" format="ascii">2.8522947803187398e-02 -1.5050793279960320e-02 0.0000000000000000e+00  -3.8822599997304351e-04 2.7381513404636196e-04 -3.5037156175989015e-02  4.8317319292257827e-02 -1.3235203763475627e-02 0.0000000000000000e+00  -9.4294957640139756e-06 -5.2718748335147775e-05 -4.5257722355576936e-02  3.3577655632719999e-02 1.1237742044928615e-02 0.0000000000000000e+00  1.5133243070240516e-02 2.8961238733362680e-02 0.0000000000000000e+00  -1.0855136077814671e-02 3.3117859939543304e-02 0.0000000000000000e+00  -2.8232941332559148e-02 1.5744948757413616e-02 0.0000000000000000e+00  -3.3390538946853267e-02 -1.1547044019297098e-02 0.0000000000000000e+00  -1.5650563474494401e-02 -2.7275272269910385e-02 0.0000000000000000e+00  1.0167154484101510e-02 -3.2850100870333888e-02 0.0000000000000000e+00  4.5020580614030137e-02 2.6299912099199397e-02 0.0000000000000000e+00  1.3533401875845784e-02 4.8489831776915501e-02 0.0000000000000000e+00  -2.6218692592488286e-02 4.5941642825284110e-02 0.0000000000000000e+00  -4.8345507005068893e-02 1.3121545715806695e-02 0.0000000000000000e+00  -4.5541206940357681e-02 -2.7730300521489594e-02 0.0000000000000000e+00  -1.2854675938312765e-02 -4.8500616470363800e-02 0.0000000000000000e+00  2.6159142896128761e-02 -4.5561665944007478e-02 0.0000000000000000e+00  2.5056811334691814e-02 4.1893894010740489e-03 -2.3759977296403941e-02  7.8645492080616549e-03 1.6931024208085566e-02 -3.7447356966046945e-02  4.7774833572492265e-02 2.1658922612123998e-03 -2.2312383010570799e-02  3.0328526948709307e-02 1.4038987483675592e-02 -4.1384861450150939e-02  1.5617664653868020e-02 2.0905762430467163e-02 -2.2148174293319084e-02  -6.4886665347358334e-03 1.7408938413827461e-02 -3.6733695972099405e-02  -4.9054294733145579e-03 2.5599208142195472e-02 -2.3130245583301286e-02  -1.8755722157669994e-02 7.2726552842366067e-03 -3.7200403156323600e-02  -2.1811316461834061e-02 1.3671725096741329e-02 -2.1130518345552633e-02  -1.7735733377184058e-02 -6.9291711840030286e-03 -3.7331725978160139e-02  -2.6008459482313107e-02 -5.4024103513497486e-03 -2.2754662496712281e-02  -7.4743443011954531e-03 -1.6318537245726964e-02 -3.7610385607339522e-02  -1.3511073489402756e-02 -2.1838992157995857e-02 -2.1244118404161488e-02  7.1930161597032662e-03 -1.7649891584278217e-02 -3.6533529164111532e-02  4.8426502500171741e-03 -2.6212286688542086e-02 -2.3103060701191728e-02  1.8952945822302052e-02 -7.4170675201472970e-03 -3.7671016400882773e-02  2.0955824201879351e-02 -1.5055947166547940e-02 -2.2285559637682476e-02  1.7746545619669641e-02 6.2721954443965278e-03 -3.7552612730491021e-02  3.3612824530068024e-02 3.5926119874266749e-02 -2.3077780813208267e-02  1.2213983971103759e-02 3.1151751098244473e-02 -4.2200110937617157e-02  -1.9280377947279216e-03 4.8477441271686912e-02 -2.2543967148252238e-02  -1.3224515694383184e-02 3.0824055329170558e-02 -4.1786429215914245e-02  -3.4765893988118780e-02 3.2298795009818818e-02 -2.2407922303087493e-02  -3.0694634720467472e-02 1.1113794492901358e-02 -4.1441788250679505e-02  -4.8675789753018416e-02 -1.7911914568866615e-03 -2.2860844215898783e-02  -3.0517697098831027e-02 -1.4133196029119784e-02 -4.1707214719405555e-02  -3.3249839416066580e-02 -3.5382553277836307e-02 -2.3018851258554511e-02  -1.1914538380918823e-02 -3.0575122274089778e-02 -4.2634181463232036e-02  1.6447154758161982e-03 -4.9437001229113410e-02 -2.3014500744184815e-02  1.3387440223645214e-02 -3.1196299683328262e-02 -4.2383008252943326e-02  3.5498034859698976e-02 -3.2975555957258602e-02 -2.3042576839170645e-02  3.0581010881962217e-02 -1.1605878316124781e-02 -4.2616617889392153e-02  -4.4104928345172038e-02 -3.7991331492839356e-03 0.0000000000000000e+00  -3.2865266301651742e-02 2.7682071088603672e-02 0.0000000000000000e+00  -3.9788143486175799e-03 4.3140221859241344e-02 0.0000000000000000e+00  2.8206656960889229e-02 3.3779305206916695e-02 0.0000000000000000e+00  4.3480813892335407e-02 3.8289778763283375e-03 0.0000000000000000e+00  3.3363674768695138e-02 -2.7941640234688144e-02 0.0000000000000000e+00  3.8081729402218894e-03 -4.2545788806089717e-02 0.0000000000000000e+00  -2.7989129972820898e-02 -3.2987337896318296e-02 0.0000000000000000e+00  </DataArray> 
</PointData> 
</Piece>
</UnstructuredGrid>
</VTKFile>