<?xml version="1.0"?>
<VTKFile type="UnstructuredGrid"  version="0.1"  >
<UnstructuredGrid>
<Piece  NumberOfPoints="58" NumberOfCells="148">
<Points>
<DataArray  type="Float64"  NumberOfComponents="3"  format="ascii">0.4023249999999999 0 0  0 0 -0.8046499999999999  0.266805 0 0  0 0 -0.6691299999999999  0.2844867357408777 0.2844867357408777 0  2.775557561562891e-17 0.4023249999999999 0  -0.2844867357408777 0.2844867357408777 0  -0.4023249999999999 2.775557561562891e-17 0  -0.2844867357408777 -0.2844867357408777 0  -2.775557561562891e-17 -0.4023249999999999 0  0.2844867357408777 -0.2844867357408777 0  0.1886596247544768 0.1886596247544768 0  2.775557561562891e-17 0.266805 0  -0.1886596247544767 0.1886596247544768 0  -0.266805 8.326672684688674e-17 0  -0.1886596247544768 -0.1886596247544767 0  -1.387778780781446e-16 -0.266805 0  0.1886596247544766 -0.1886596247544769 0  0.3686082568662342 0 -0.3224491190562394  0.2536108874396318 0 -0.6246500569025265  0.2466044134321161 0 -0.2554056152626437  0.1766587270840894 0 -0.5014405794480644  0.2606453980314651 0.2606453980314651 -0.3224491190562516  0.1793299782912967 0.1793299782912967 -0.6246500569025382  2.542952674080888e-17 0.3686082568662342 -0.3224491190562394  1.749609435972772e-17 0.2536108874396318 -0.6246500569025265  -0.2606453980314651 0.2606453980314651 -0.3224491190562516  -0.1793299782912967 0.1793299782912967 -0.6246500569025382  -0.3686082568662342 2.542952674080888e-17 -0.3224491190562394  -0.2536108874396318 1.749609435972772e-17 -0.6246500569025265  -0.2606453980314651 -0.2606453980314651 -0.3224491190562516  -0.1793299782912967 -0.1793299782912967 -0.6246500569025382  -2.542952674080888e-17 -0.3686082568662342 -0.3224491190562394  -1.749609435972772e-17 -0.2536108874396318 -0.6246500569025265  0.2606453980314651 -0.2606453980314651 -0.3224491190562516  0.1793299782912967 -0.1793299782912967 -0.6246500569025382  0.1743756530083801 0.17437565300838 -0.2554056152626451  0.1249165838769436 0.1249165838769436 -0.5014405794480633  2.565411984094344e-17 0.2466044134321161 -0.2554056152626437  1.837770902997769e-17 0.1766587270840894 -0.5014405794480644  -0.1743756530083802 0.1743756530083803 -0.2554056152626436  -0.1249165838769431 0.1249165838769432 -0.5014405794480646  -0.2466044134321161 7.696235952283031e-17 -0.2554056152626437  -0.1766587270840894 5.513312708993305e-17 -0.5014405794480644  -0.1743756530083802 -0.17437565300838 -0.2554056152626445  -0.1249165838769429 -0.1249165838769428 -0.5014405794480657  -1.282705992047172e-16 -0.2466044134321161 -0.2554056152626437  -9.188854514988842e-17 -0.1766587270840894 -0.5014405794480644  0.1743756530083804 -0.1743756530083806 -0.2554056152626407  0.1249165838769432 -0.1249165838769434 -0.5014405794480641  -0.2855690901238386 -0.1182865901238386 0  -0.2855690901238385 0.1182865901238386 0  -0.1182865901238386 0.2855690901238386 -0  0.1182865901238386 0.2855690901238386 0  0.2855690901238386 0.1182865901238386 0  0.2855690901238386 -0.1182865901238386 0  0.1182865901238385 -0.2855690901238386 0  -0.1182865901238387 -0.2855690901238386 0  </DataArray>
</Points>
<Cells>
<DataArray  type="UInt32"  Name="connectivity"  format="ascii">5 6 24 52  8 9 32 57  7 8 28 50  9 10 32 56  0 4 18 54  6 7 28 51  0 10 18 55  4 5 24 53  10 18 34 55  4 18 22 54  4 22 24 53  8 28 30 50  30 42 44 50  22 23 37 39  21 22 23 37  30 31 43 45  30 31 45 47  20 34 48 55  22 36 38 53  20 22 36 54  28 40 42 51  21 34 35 49  33 34 47 49  16 17 46 56  15 16 46 57  25 26 39 41  22 24 38 53  18 20 34 55  18 20 22 54  28 30 42 50  29 30 31 43  22 23 25 39  19 21 22 23  30 31 33 47  28 29 41 43  15 42 44 50  9 32 46 57  0 18 20 55  5 24 38 52  7 28 42 51  5 24 38 53  0 18 20 54  9 32 46 56  7 28 42 50  33 34 35 49  9 16 46 57  9 16 46 56  12 36 38 53  2 11 20 54  11 12 36 53  14 15 42 50  14 40 42 51  13 14 40 51  12 13 38 52  2 17 48 55  11 20 36 54  2 20 48 55  25 26 27 41  8 30 44 50  10 34 48 55  4 22 36 54  4 22 36 53  27 28 29 41  18 21 34 35  26 27 28 41  18 19 21 35  28 29 30 43  24 25 26 39  22 24 25 39  30 32 33 47  18 19 21 22  32 33 34 47  0 2 20 54  0 2 20 55  7 14 42 50  7 14 42 51  5 12 38 52  5 12 38 53  30 43 44 45  30 44 45 47  22 36 37 39  21 22 36 37  34 47 48 49  21 34 48 49  1 3 31 33  1 3 23 25  1 3 19 23  1 3 29 31  8 15 44 50  30 42 43 44  26 39 40 41  22 36 38 39  20 21 22 36  20 21 34 48  4 11 36 54  4 11 36 53  6 13 40 51  10 17 48 55  3 31 43 45  3 23 37 39  3 31 45 47  3 21 23 37  28 41 42 43  32 44 46 47  1 3 27 29  1 3 33 35  1 3 19 35  1 3 25 27  32 46 47 48  28 40 41 42  24 38 39 40  30 32 44 47  3 33 47 49  3 21 35 49  26 28 40 41  28 30 42 43  24 26 39 40  22 24 38 39  32 34 47 48  18 20 21 22  18 20 21 34  3 29 41 43  3 25 39 41  3 29 31 43  3 23 25 39  3 31 33 47  3 19 21 23  3 33 35 49  3 27 29 41  3 25 27 41  3 19 21 35  6 24 26 40  10 32 34 48  8 30 32 44  6 26 28 40  6 28 40 51  8 15 44 46  8 15 46 57  8 32 44 46  8 32 46 57  10 17 46 56  10 17 46 48  10 32 46 56  10 32 46 48  6 13 38 52  6 13 38 40  6 24 38 52  6 24 38 40  </DataArray>
<DataArray  type="UInt32"  Name="offsets"  format="ascii">4 8 12 16 20 24 28 32 36 40 44 48 52 56 60 64 68 72 76 80 84 88 92 96 100 104 108 112 116 120 124 128 132 136 140 144 148 152 156 160 164 168 172 176 180 184 188 192 196 200 204 208 212 216 220 224 228 232 236 240 244 248 252 256 260 264 268 272 276 280 284 288 292 296 300 304 308 312 316 320 324 328 332 336 340 344 348 352 356 360 364 368 372 376 380 384 388 392 396 400 404 408 412 416 420 424 428 432 436 440 444 448 452 456 460 464 468 472 476 480 484 488 492 496 500 504 508 512 516 520 524 528 532 536 540 544 548 552 556 560 564 568 572 576 580 584 588 592 </DataArray>
<DataArray  type="UInt8"  Name="types"  format="ascii">10 10 10 10 10 10 10 10 10 10 10 10 10 10 10 10 10 10 10 10 10 10 10 10 10 10 10 10 10 10 10 10 10 10 10 10 10 10 10 10 10 10 10 10 10 10 10 10 10 10 10 10 10 10 10 10 10 10 10 10 10 10 10 10 10 10 10 10 10 10 10 10 10 10 10 10 10 10 10 10 10 10 10 10 10 10 10 10 10 10 10 10 10 10 10 10 10 10 10 10 10 10 10 10 10 10 10 10 10 10 10 10 10 10 10 10 10 10 10 10 10 10 10 10 10 10 10 10 10 10 10 10 10 10 10 10 10 10 10 10 10 10 10 10 10 10 10 10 </DataArray>
</Cells>
<PointData  Vectors="f_37-0"> 
<DataArray  type="Float64"  Name="f_37-0"  NumberOfComponents="3" format="ascii">3.1397669933298455e-02 1.6362837973725806e-03 0.0000000000000000e+00  -1.0736228512693573e-03 1.6158801264442342e-06 -2.7560383354546896e-02  5.2997148531857476e-02 -1.3765712056998570e-02 0.0000000000000000e+00  -3.4385328914720648e-04 -9.5899973758983826e-04 -4.2594802354152327e-02  2.5868226618098299e-02 2.3840089317922024e-02 0.0000000000000000e+00  -7.6303536065514205e-04 2.8727585750964277e-02 0.0000000000000000e+00  -2.4084422608624582e-02 2.2486055128072054e-02 0.0000000000000000e+00  -3.0243214074758169e-02 4.3745561592419940e-04 0.0000000000000000e+00  -2.6823791342935017e-02 -2.0253313572047509e-02 0.0000000000000000e+00  1.5843072818259791e-03 -2.8419586246512911e-02 0.0000000000000000e+00  2.3858574249409684e-02 -2.2979527280483178e-02 0.0000000000000000e+00  4.9640274574538491e-02 2.9451805823780968e-02 0.0000000000000000e+00  1.4357780607088096e-02 5.2080869009123676e-02 0.0000000000000000e+00  -2.9673921305794847e-02 5.0604219281315699e-02 0.0000000000000000e+00  -5.2749392658063748e-02 1.3585759218166781e-02 0.0000000000000000e+00  -5.0045343222186504e-02 -3.2234005449189543e-02 0.0000000000000000e+00  -1.4301531673604449e-02 -5.2180336907501484e-02 0.0000000000000000e+00  2.9981680133438660e-02 -5.0145646450024860e-02 0.0000000000000000e+00  2.8306366732697080e-02 8.1222234287804554e-04 -2.5161761714676649e-02  7.0601299164644816e-03 -8.4577097639684947e-04 -3.8962708877525794e-02  5.6290936013506397e-02 1.0150450118761886e-03 -2.5135367623582833e-02  3.6809048525632174e-02 1.0580000814063613e-02 -4.5433938353783586e-02  2.1719241499732703e-02 1.8962867244383411e-02 -2.4182479372845539e-02  5.4002616118121027e-03 4.4790563415307242e-03 -3.8106066150246927e-02  3.9271616825568793e-03 2.8917154018708868e-02 -2.7073946382751887e-02  -1.1452541758736250e-03 8.6434681939671684e-03 -3.8976388062930425e-02  -1.7099001229316027e-02 2.1395212294833654e-02 -2.4282963855103312e-02  -4.5937595149298334e-03 5.3763041984494801e-03 -3.8889155179773940e-02  -2.8730509820454424e-02 -1.0603453750017346e-03 -2.4228844356348631e-02  -6.8148806746476769e-03 1.1040332569756061e-03 -3.8205993882907727e-02  -2.0986318631841652e-02 -2.0464830357029232e-02 -2.3064633352738069e-02  -6.6248812779555058e-03 -5.8481560860001256e-03 -3.7935544319548625e-02  -4.3623256276748594e-03 -3.0165329887352196e-02 -2.6290362920853124e-02  -1.5937238783615459e-04 -9.5340777849996956e-03 -3.8787590838972673e-02  1.6601366282452047e-02 -2.1423079436139969e-02 -2.4654847407284890e-02  4.1292996169166206e-03 -7.5529375415318012e-03 -3.9481363715646846e-02  4.0830544789105583e-02 4.1049676780263555e-02 -2.6205554438030902e-02  1.8171669180890949e-02 3.2276838816860887e-02 -4.6337498532992814e-02  -6.4084321298773594e-04 5.6747573773374450e-02 -2.5422136853172385e-02  -1.0241043536707232e-02 3.6679215736845849e-02 -4.5780046051661492e-02  -3.8591827109318452e-02 3.8238647801420722e-02 -2.5105836444683852e-02  -3.2368556582500617e-02 1.6775077322361786e-02 -4.5427596803613288e-02  -5.7039154455624255e-02 -1.0413070868634539e-03 -2.5219142716085954e-02  -3.6908855698187672e-02 -1.1667885233474080e-02 -4.5432633647431178e-02  -4.0760114977975513e-02 -4.0323035289655806e-02 -2.5574099090555368e-02  -1.8566229422219249e-02 -3.2472318400262441e-02 -4.5882111907435887e-02  1.0545433605124259e-03 -5.7639935740931562e-02 -2.5419688992564870e-02  9.8661318088918634e-03 -3.7882911275790014e-02 -4.5586269932656687e-02  4.0130202443579392e-02 -3.9143038728521401e-02 -2.5516607622639277e-02  3.0934431270727834e-02 -1.7482454520056364e-02 -4.5798601916025583e-02  -5.1126969980705476e-02 -1.2090394225520093e-02 0.0000000000000000e+00  -4.2414886305354109e-02 2.6719512426996935e-02 0.0000000000000000e+00  -1.2291139062930622e-02 4.7521305498087280e-02 0.0000000000000000e+00  2.7576096709465266e-02 4.4539410821830008e-02 0.0000000000000000e+00  5.0337339601716116e-02 1.2260461425644836e-02 0.0000000000000000e+00  4.3609126467153037e-02 -2.6630480348131359e-02 0.0000000000000000e+00  1.2211874738406125e-02 -4.7573675971585454e-02 0.0000000000000000e+00  -2.6283103279856918e-02 -4.2686107367037755e-02 0.0000000000000000e+00  </DataArray> 
</PointData> 
</Piece>
</UnstructuredGrid>
</VTKFile>