<?xml version="1.0"?>
<VTKFile type="UnstructuredGrid"  version="0.1"  >
<UnstructuredGrid>
<Piece  NumberOfPoints="58" NumberOfCells="148">
<Points>
<DataArray  type="Float64"  NumberOfComponents="3"  format="ascii">0.4023249999999999 0 0  0 0 -0.8046499999999999  0.266805 0 0  0 0 -0.6691299999999999  0.2844867357408777 0.2844867357408777 0  2.775557561562891e-17 0.4023249999999999 0  -0.2844867357408777 0.2844867357408777 0  -0.4023249999999999 2.775557561562891e-17 0  -0.2844867357408777 -0.2844867357408777 0  -2.775557561562891e-17 -0.4023249999999999 0  0.2844867357408777 -0.2844867357408777 0  0.1886596247544768 0.1886596247544768 0  2.775557561562891e-17 0.266805 0  -0.1886596247544767 0.1886596247544768 0  -0.266805 8.326672684688674e-17 0  -0.1886596247544768 -0.1886596247544767 0  -1.387778780781446e-16 -0.266805 0  0.1886596247544766 -0.1886596247544769 0  0.3686082568662342 0 -0.3224491190562394  0.2536108874396318 0 -0.6246500569025265  0.2466044134321161 0 -0.2554056152626437  0.1766587270840894 0 -0.5014405794480644  0.2606453980314651 0.2606453980314651 -0.3224491190562516  0.1793299782912967 0.1793299782912967 -0.6246500569025382  2.542952674080888e-17 0.3686082568662342 -0.3224491190562394  1.749609435972772e-17 0.2536108874396318 -0.6246500569025265  -0.2606453980314651 0.2606453980314651 -0.3224491190562516  -0.1793299782912967 0.1793299782912967 -0.6246500569025382  -0.3686082568662342 2.542952674080888e-17 -0.3224491190562394  -0.2536108874396318 1.749609435972772e-17 -0.6246500569025265  -0.2606453980314651 -0.2606453980314651 -0.3224491190562516  -0.1793299782912967 -0.1793299782912967 -0.6246500569025382  -2.542952674080888e-17 -0.3686082568662342 -0.3224491190562394  -1.749609435972772e-17 -0.2536108874396318 -0.6246500569025265  0.2606453980314651 -0.2606453980314651 -0.3224491190562516  0.1793299782912967 -0.1793299782912967 -0.6246500569025382  0.1743756530083801 0.17437565300838 -0.2554056152626451  0.1249165838769436 0.1249165838769436 -0.5014405794480633  2.565411984094344e-17 0.2466044134321161 -0.2554056152626437  1.837770902997769e-17 0.1766587270840894 -0.5014405794480644  -0.1743756530083802 0.1743756530083803 -0.2554056152626436  -0.1249165838769431 0.1249165838769432 -0.5014405794480646  -0.2466044134321161 7.696235952283031e-17 -0.2554056152626437  -0.1766587270840894 5.513312708993305e-17 -0.5014405794480644  -0.1743756530083802 -0.17437565300838 -0.2554056152626445  -0.1249165838769429 -0.1249165838769428 -0.5014405794480657  -1.282705992047172e-16 -0.2466044134321161 -0.2554056152626437  -9.188854514988842e-17 -0.1766587270840894 -0.5014405794480644  0.1743756530083804 -0.1743756530083806 -0.2554056152626407  0.1249165838769432 -0.1249165838769434 -0.5014405794480641  -0.2855690901238386 -0.1182865901238386 0  -0.2855690901238385 0.1182865901238386 0  -0.1182865901238386 0.2855690901238386 -0  0.1182865901238386 0.2855690901238386 0  0.2855690901238386 0.1182865901238386 0  0.2855690901238386 -0.1182865901238386 0  0.1182865901238385 -0.2855690901238386 0  -0.1182865901238387 -0.2855690901238386 0  </DataArray>
</Points>
<Cells>
<DataArray  type="UInt32"  Name="connectivity"  format="ascii">5 6 24 52  8 9 32 57  7 8 28 50  9 10 32 56  0 4 18 54  6 7 28 51  0 10 18 55  4 5 24 53  10 18 34 55  4 18 22 54  4 22 24 53  8 28 30 50  30 42 44 50  22 23 37 39  21 22 23 37  30 31 43 45  30 31 45 47  20 34 48 55  22 36 38 53  20 22 36 54  28 40 42 51  21 34 35 49  33 34 47 49  16 17 46 56  15 16 46 57  25 26 39 41  22 24 38 53  18 20 34 55  18 20 22 54  28 30 42 50  29 30 31 43  22 23 25 39  19 21 22 23  30 31 33 47  28 29 41 43  15 42 44 50  9 32 46 57  0 18 20 55  5 24 38 52  7 28 42 51  5 24 38 53  0 18 20 54  9 32 46 56  7 28 42 50  33 34 35 49  9 16 46 57  9 16 46 56  12 36 38 53  2 11 20 54  11 12 36 53  14 15 42 50  14 40 42 51  13 14 40 51  12 13 38 52  2 17 48 55  11 20 36 54  2 20 48 55  25 26 27 41  8 30 44 50  10 34 48 55  4 22 36 54  4 22 36 53  27 28 29 41  18 21 34 35  26 27 28 41  18 19 21 35  28 29 30 43  24 25 26 39  22 24 25 39  30 32 33 47  18 19 21 22  32 33 34 47  0 2 20 54  0 2 20 55  7 14 42 50  7 14 42 51  5 12 38 52  5 12 38 53  30 43 44 45  30 44 45 47  22 36 37 39  21 22 36 37  34 47 48 49  21 34 48 49  1 3 31 33  1 3 23 25  1 3 19 23  1 3 29 31  8 15 44 50  30 42 43 44  26 39 40 41  22 36 38 39  20 21 22 36  20 21 34 48  4 11 36 54  4 11 36 53  6 13 40 51  10 17 48 55  3 31 43 45  3 23 37 39  3 31 45 47  3 21 23 37  28 41 42 43  32 44 46 47  1 3 27 29  1 3 33 35  1 3 19 35  1 3 25 27  32 46 47 48  28 40 41 42  24 38 39 40  30 32 44 47  3 33 47 49  3 21 35 49  26 28 40 41  28 30 42 43  24 26 39 40  22 24 38 39  32 34 47 48  18 20 21 22  18 20 21 34  3 29 41 43  3 25 39 41  3 29 31 43  3 23 25 39  3 31 33 47  3 19 21 23  3 33 35 49  3 27 29 41  3 25 27 41  3 19 21 35  6 24 26 40  10 32 34 48  8 30 32 44  6 26 28 40  6 28 40 51  8 15 44 46  8 15 46 57  8 32 44 46  8 32 46 57  10 17 46 56  10 17 46 48  10 32 46 56  10 32 46 48  6 13 38 52  6 13 38 40  6 24 38 52  6 24 38 40  </DataArray>
<DataArray  type="UInt32"  Name="offsets"  format="ascii">4 8 12 16 20 24 28 32 36 40 44 48 52 56 60 64 68 72 76 80 84 88 92 96 100 104 108 112 116 120 124 128 132 136 140 144 148 152 156 160 164 168 172 176 180 184 188 192 196 200 204 208 212 216 220 224 228 232 236 240 244 248 252 256 260 264 268 272 276 280 284 288 292 296 300 304 308 312 316 320 324 328 332 336 340 344 348 352 356 360 364 368 372 376 380 384 388 392 396 400 404 408 412 416 420 424 428 432 436 440 444 448 452 456 460 464 468 472 476 480 484 488 492 496 500 504 508 512 516 520 524 528 532 536 540 544 548 552 556 560 564 568 572 576 580 584 588 592 </DataArray>
<DataArray  type="UInt8"  Name="types"  format="ascii">10 10 10 10 10 10 10 10 10 10 10 10 10 10 10 10 10 10 10 10 10 10 10 10 10 10 10 10 10 10 10 10 10 10 10 10 10 10 10 10 10 10 10 10 10 10 10 10 10 10 10 10 10 10 10 10 10 10 10 10 10 10 10 10 10 10 10 10 10 10 10 10 10 10 10 10 10 10 10 10 10 10 10 10 10 10 10 10 10 10 10 10 10 10 10 10 10 10 10 10 10 10 10 10 10 10 10 10 10 10 10 10 10 10 10 10 10 10 10 10 10 10 10 10 10 10 10 10 10 10 10 10 10 10 10 10 10 10 10 10 10 10 10 10 10 10 10 10 </DataArray>
</Cells>
<PointData  Vectors="f_37-0"> 
<DataArray  type="Float64"  Name="f_37-0"  NumberOfComponents="3" format="ascii">2.9984827784499551e-02 -2.1474459816306054e-03 0.0000000000000000e+00  8.6007192174549154e-06 -6.8819983808646602e-05 -3.4155753139671355e-02  5.0922409462195603e-02 -9.6376123405150730e-03 0.0000000000000000e+00  -8.3930422927249907e-05 -3.9815953293580777e-04 -4.6575231402006381e-02  2.5840428037395408e-02 2.0481014869755614e-02 0.0000000000000000e+00  2.0557039821984856e-03 2.9013531558894429e-02 0.0000000000000000e+00  -2.0765234219097557e-02 2.4601097865425282e-02 0.0000000000000000e+00  -2.9266799226226811e-02 3.0382325743308052e-03 0.0000000000000000e+00  -2.6067782848535948e-02 -1.9995795543669929e-02 0.0000000000000000e+00  -2.3808494596581128e-03 -2.7895367470719204e-02 0.0000000000000000e+00  1.9942825194030348e-02 -2.5314760597108618e-02 0.0000000000000000e+00  4.4256794522753905e-02 3.0678982759170834e-02 0.0000000000000000e+00  9.7781407770006056e-03 5.0741706760822229e-02 0.0000000000000000e+00  -3.1040409140251055e-02 4.5386756937887754e-02 0.0000000000000000e+00  -5.0838949059877354e-02 9.4262878798438820e-03 0.0000000000000000e+00  -4.4758242060720640e-02 -3.2699319879029680e-02 0.0000000000000000e+00  -9.5348651829918803e-03 -5.0870323189430924e-02 0.0000000000000000e+00  3.0910708240097284e-02 -4.5029813577913351e-02 0.0000000000000000e+00  2.5613922149296486e-02 9.4562049860253438e-05 -2.4415519948480322e-02  7.9024252357712474e-03 2.9538113886534616e-03 -3.8119489947506566e-02  5.0757484465695099e-02 7.9152556250113775e-04 -2.3643719646337841e-02  3.2844548538355701e-02 7.4209014173163366e-03 -4.3724389640377143e-02  1.9029864130556420e-02 1.8082590961560025e-02 -2.3259453319064750e-02  3.0386345027341344e-03 7.8244825827272092e-03 -3.7805814986240249e-02  4.1258712622125866e-04 2.6196224950878512e-02 -2.4911550539846519e-02  -5.1469791265296534e-03 8.2842705447092602e-03 -3.8881402857136413e-02  -1.8881462077139408e-02 1.7654621314525491e-02 -2.2525215852834370e-02  -7.9523722905045120e-03 2.6180985325760433e-03 -3.8837825460848914e-02  -2.6667609047029684e-02 -1.2188839839062102e-03 -2.3474419897656307e-02  -7.5912888763162833e-03 -2.8253324691546217e-03 -3.8239074637944452e-02  -1.7739148117092582e-02 -1.9714771083634699e-02 -2.2158378684973886e-02  -2.9060810076088992e-03 -8.8018547682584686e-03 -3.7608495199737385e-02  -4.9438257638109218e-04 -2.7462525513085801e-02 -2.4453421984793233e-02  4.9446561507624992e-03 -8.7743138569822011e-03 -3.8868940608648088e-02  1.6971135141952743e-02 -1.8753094712939802e-02 -2.3210056400987802e-02  8.0375613332197404e-03 -3.9106784678159551e-03 -3.8973644431980488e-02  3.6920366819929953e-02 3.7113853289038767e-02 -2.4470700917307065e-02  1.8336299690684479e-02 2.7970002510971387e-02 -4.4621890298107515e-02  -6.3723395513078150e-04 5.1379461084834342e-02 -2.3989838920728972e-02  -6.7032419780433507e-03 3.3225421899162083e-02 -4.4041915844144700e-02  -3.5328221262137312e-02 3.5239371918129002e-02 -2.3630736948731572e-02  -2.7684383694742173e-02 1.7209078542640473e-02 -4.3846710917268779e-02  -5.1740540741864460e-02 -4.8390346611794160e-04 -2.4098471617430419e-02  -3.2872742900439657e-02 -7.8454832207978300e-03 -4.4050285319869500e-02  -3.6398617503302561e-02 -3.6163410924806454e-02 -2.4238817506503096e-02  -1.8095140439503898e-02 -2.7659640837370127e-02 -4.4502533139389136e-02  4.4702785005959234e-04 -5.2049638261775111e-02 -2.3927872611553883e-02  6.7331564443660983e-03 -3.3906461947447911e-02 -4.4123781791635272e-02  3.6531578797346441e-02 -3.6116402277082973e-02 -2.4038700028719284e-02  2.7301361290211764e-02 -1.7944826592506499e-02 -4.4456867980991327e-02  -4.4655919745384132e-02 -1.1496367271837230e-02 0.0000000000000000e+00  -3.8592861674662506e-02 2.2856154442090888e-02 0.0000000000000000e+00  -1.1824784676176089e-02 4.2893486694947879e-02 0.0000000000000000e+00  2.3158888343169749e-02 3.9525268809986691e-02 0.0000000000000000e+00  4.4019594450302478e-02 1.1419023434970864e-02 0.0000000000000000e+00  3.9192433462951370e-02 -2.2997538201650718e-02 0.0000000000000000e+00  1.1494085827555546e-02 -4.2683664103996967e-02 0.0000000000000000e+00  -2.2721863394907154e-02 -3.8490877812405747e-02 0.0000000000000000e+00  </DataArray> 
</PointData> 
</Piece>
</UnstructuredGrid>
</VTKFile>