<?xml version="1.0"?>
<VTKFile type="UnstructuredGrid"  version="0.1"  >
<UnstructuredGrid>
<Piece  NumberOfPoints="8" NumberOfCells="6">
<Points>
<DataArray  type="Float64"  NumberOfComponents="3"  format="ascii">0 0 0  1 0 0  0 1 0  1 1 0  0 0 1  1 0 1  0 1 1  1 1 1  </DataArray>
</Points>
<Cells>
<DataArray  type="UInt32"  Name="connectivity"  format="ascii">0 1 3 7  0 1 5 7  0 4 5 7  0 2 3 7  0 4 6 7  0 2 6 7  </DataArray>
<DataArray  type="UInt32"  Name="offsets"  format="ascii">4 8 12 16 20 24 </DataArray>
<DataArray  type="UInt8"  Name="types"  format="ascii">10 10 10 10 10 10 </DataArray>
</Cells>
<PointData  Vectors="f_32-0"> 
<DataArray  type="Float64"  Name="f_32-0"  NumberOfComponents="3" format="ascii">0.0000000000000000e+00 0.0000000000000000e+00 0.0000000000000000e+00  4.7641654811000064e-02 0.0000000000000000e+00 0.0000000000000000e+00  0.0000000000000000e+00 -2.3002120632701576e-02 0.0000000000000000e+00  4.7641654810999710e-02 -2.3002120632701299e-02 0.0000000000000000e+00  0.0000000000000000e+00 0.0000000000000000e+00 -2.3002120632701545e-02  4.7641654810999669e-02 0.0000000000000000e+00 -2.3002120632701292e-02  0.0000000000000000e+00 -2.3002120632701427e-02 -2.3002120632701423e-02  4.7641654810999925e-02 -2.3002120632701462e-02 -2.3002120632701462e-02  </DataArray> 
</PointData> 
</Piece>
</UnstructuredGrid>
</VTKFile>