<?xml version="1.0"?>
<VTKFile type="UnstructuredGrid"  version="0.1"  >
<UnstructuredGrid>
<Piece  NumberOfPoints="8" NumberOfCells="6">
<Points>
<DataArray  type="Float64"  NumberOfComponents="3"  format="ascii">0 0 0  1 0 0  0 1 0  1 1 0  0 0 1  1 0 1  0 1 1  1 1 1  </DataArray>
</Points>
<Cells>
<DataArray  type="UInt32"  Name="connectivity"  format="ascii">0 1 3 7  0 1 5 7  0 4 5 7  0 2 3 7  0 4 6 7  0 2 6 7  </DataArray>
<DataArray  type="UInt32"  Name="offsets"  format="ascii">4 8 12 16 20 24 </DataArray>
<DataArray  type="UInt8"  Name="types"  format="ascii">10 10 10 10 10 10 </DataArray>
</Cells>
<PointData  Vectors="f_32-0"> 
<DataArray  type="Float64"  Name="f_32-0"  NumberOfComponents="3" format="ascii">0.0000000000000000e+00 0.0000000000000000e+00 0.0000000000000000e+00  1.1347739852895636e-01 0.0000000000000000e+00 0.0000000000000000e+00  0.0000000000000000e+00 -5.2325277102722674e-02 0.0000000000000000e+00  1.1347739852895541e-01 -5.2325277102722126e-02 0.0000000000000000e+00  0.0000000000000000e+00 0.0000000000000000e+00 -5.2325277102722702e-02  1.1347739852895546e-01 0.0000000000000000e+00 -5.2325277102722167e-02  0.0000000000000000e+00 -5.2325277102722445e-02 -5.2325277102722459e-02  1.1347739852895593e-01 -5.2325277102722563e-02 -5.2325277102722563e-02  </DataArray> 
</PointData> 
</Piece>
</UnstructuredGrid>
</VTKFile>