<?xml version="1.0"?>
<VTKFile type="UnstructuredGrid"  version="0.1"  >
<UnstructuredGrid>
<Piece  NumberOfPoints="8" NumberOfCells="6">
<Points>
<DataArray  type="Float64"  NumberOfComponents="3"  format="ascii">0 0 0  1 0 0  0 1 0  1 1 0  0 0 1  1 0 1  0 1 1  1 1 1  </DataArray>
</Points>
<Cells>
<DataArray  type="UInt32"  Name="connectivity"  format="ascii">0 1 3 7  0 1 5 7  0 4 5 7  0 2 3 7  0 4 6 7  0 2 6 7  </DataArray>
<DataArray  type="UInt32"  Name="offsets"  format="ascii">4 8 12 16 20 24 </DataArray>
<DataArray  type="UInt8"  Name="types"  format="ascii">10 10 10 10 10 10 </DataArray>
</Cells>
<PointData  Vectors="f_32-0"> 
<DataArray  type="Float64"  Name="f_32-0"  NumberOfComponents="3" format="ascii">0.0000000000000000e+00 0.0000000000000000e+00 0.0000000000000000e+00  6.4641400976417906e-02 0.0000000000000000e+00 0.0000000000000000e+00  0.0000000000000000e+00 -3.0833654732151421e-02 0.0000000000000000e+00  6.4641400976417310e-02 -3.0833654732151123e-02 0.0000000000000000e+00  0.0000000000000000e+00 0.0000000000000000e+00 -3.0833654732151446e-02  6.4641400976417254e-02 0.0000000000000000e+00 -3.0833654732151085e-02  0.0000000000000000e+00 -3.0833654732151296e-02 -3.0833654732151286e-02  6.4641400976417546e-02 -3.0833654732151328e-02 -3.0833654732151272e-02  </DataArray> 
</PointData> 
</Piece>
</UnstructuredGrid>
</VTKFile>