<?xml version="1.0"?>
<VTKFile type="UnstructuredGrid"  version="0.1"  >
<UnstructuredGrid>
<Piece  NumberOfPoints="8" NumberOfCells="6">
<Points>
<DataArray  type="Float64"  NumberOfComponents="3"  format="ascii">0 0 0  1 0 0  0 1 0  1 1 0  0 0 1  1 0 1  0 1 1  1 1 1  </DataArray>
</Points>
<Cells>
<DataArray  type="UInt32"  Name="connectivity"  format="ascii">0 1 3 7  0 1 5 7  0 4 5 7  0 2 3 7  0 4 6 7  0 2 6 7  </DataArray>
<DataArray  type="UInt32"  Name="offsets"  format="ascii">4 8 12 16 20 24 </DataArray>
<DataArray  type="UInt8"  Name="types"  format="ascii">10 10 10 10 10 10 </DataArray>
</Cells>
<PointData  Vectors="f_32-0"> 
<DataArray  type="Float64"  Name="f_32-0"  NumberOfComponents="3" format="ascii">0.0000000000000000e+00 0.0000000000000000e+00 0.0000000000000000e+00  1.0659445370383741e-01 0.0000000000000000e+00 0.0000000000000000e+00  0.0000000000000000e+00 -4.9382608542391931e-02 0.0000000000000000e+00  1.0659445370383658e-01 -4.9382608542391460e-02 0.0000000000000000e+00  0.0000000000000000e+00 0.0000000000000000e+00 -4.9382608542391904e-02  1.0659445370383651e-01 0.0000000000000000e+00 -4.9382608542391328e-02  0.0000000000000000e+00 -4.9382608542391633e-02 -4.9382608542391654e-02  1.0659445370383695e-01 -4.9382608542391779e-02 -4.9382608542391702e-02  </DataArray> 
</PointData> 
</Piece>
</UnstructuredGrid>
</VTKFile>