<?xml version="1.0"?>
<VTKFile type="UnstructuredGrid"  version="0.1"  >
<UnstructuredGrid>
<Piece  NumberOfPoints="8" NumberOfCells="6">
<Points>
<DataArray  type="Float64"  NumberOfComponents="3"  format="ascii">0 0 0  1 0 0  0 1 0  1 1 0  0 0 1  1 0 1  0 1 1  1 1 1  </DataArray>
</Points>
<Cells>
<DataArray  type="UInt32"  Name="connectivity"  format="ascii">0 1 3 7  0 1 5 7  0 4 5 7  0 2 3 7  0 4 6 7  0 2 6 7  </DataArray>
<DataArray  type="UInt32"  Name="offsets"  format="ascii">4 8 12 16 20 24 </DataArray>
<DataArray  type="UInt8"  Name="types"  format="ascii">10 10 10 10 10 10 </DataArray>
</Cells>
<PointData  Vectors="f_32-0"> 
<DataArray  type="Float64"  Name="f_32-0"  NumberOfComponents="3" format="ascii">0.0000000000000000e+00 0.0000000000000000e+00 0.0000000000000000e+00  1.2492375738133361e-01 0.0000000000000000e+00 0.0000000000000000e+00  0.0000000000000000e+00 -5.7159009136115067e-02 0.0000000000000000e+00  1.2492375738133277e-01 -5.7159009136114512e-02 0.0000000000000000e+00  0.0000000000000000e+00 0.0000000000000000e+00 -5.7159009136115060e-02  1.2492375738133267e-01 0.0000000000000000e+00 -5.7159009136114450e-02  0.0000000000000000e+00 -5.7159009136114873e-02 -5.7159009136114804e-02  1.2492375738133318e-01 -5.7159009136114949e-02 -5.7159009136114887e-02  </DataArray> 
</PointData> 
</Piece>
</UnstructuredGrid>
</VTKFile>