<?xml version="1.0"?>
<VTKFile type="UnstructuredGrid"  version="0.1"  >
<UnstructuredGrid>
<Piece  NumberOfPoints="8" NumberOfCells="6">
<Points>
<DataArray  type="Float64"  NumberOfComponents="3"  format="ascii">0 0 0  1 0 0  0 1 0  1 1 0  0 0 1  1 0 1  0 1 1  1 1 1  </DataArray>
</Points>
<Cells>
<DataArray  type="UInt32"  Name="connectivity"  format="ascii">0 1 3 7  0 1 5 7  0 4 5 7  0 2 3 7  0 4 6 7  0 2 6 7  </DataArray>
<DataArray  type="UInt32"  Name="offsets"  format="ascii">4 8 12 16 20 24 </DataArray>
<DataArray  type="UInt8"  Name="types"  format="ascii">10 10 10 10 10 10 </DataArray>
</Cells>
<PointData  Vectors="f_32-0"> 
<DataArray  type="Float64"  Name="f_32-0"  NumberOfComponents="3" format="ascii">0.0000000000000000e+00 0.0000000000000000e+00 0.0000000000000000e+00  8.9360420434623875e-02 0.0000000000000000e+00 0.0000000000000000e+00  0.0000000000000000e+00 -4.1892579069957997e-02 0.0000000000000000e+00  8.9360420434623042e-02 -4.1892579069957442e-02 0.0000000000000000e+00  0.0000000000000000e+00 0.0000000000000000e+00 -4.1892579069957983e-02  8.9360420434623208e-02 0.0000000000000000e+00 -4.1892579069957546e-02  0.0000000000000000e+00 -4.1892579069957775e-02 -4.1892579069957782e-02  8.9360420434623514e-02 -4.1892579069957837e-02 -4.1892579069957879e-02  </DataArray> 
</PointData> 
</Piece>
</UnstructuredGrid>
</VTKFile>