<?xml version="1.0"?>
<VTKFile type="UnstructuredGrid"  version="0.1"  >
<UnstructuredGrid>
<Piece  NumberOfPoints="8" NumberOfCells="6">
<Points>
<DataArray  type="Float64"  NumberOfComponents="3"  format="ascii">0 0 0  1 0 0  0 1 0  1 1 0  0 0 1  1 0 1  0 1 1  1 1 1  </DataArray>
</Points>
<Cells>
<DataArray  type="UInt32"  Name="connectivity"  format="ascii">0 1 3 7  0 1 5 7  0 4 5 7  0 2 3 7  0 4 6 7  0 2 6 7  </DataArray>
<DataArray  type="UInt32"  Name="offsets"  format="ascii">4 8 12 16 20 24 </DataArray>
<DataArray  type="UInt8"  Name="types"  format="ascii">10 10 10 10 10 10 </DataArray>
</Cells>
<PointData  Vectors="f_32-0"> 
<DataArray  type="Float64"  Name="f_32-0"  NumberOfComponents="3" format="ascii">0.0000000000000000e+00 0.0000000000000000e+00 0.0000000000000000e+00  2.6187094068928739e-02 0.0000000000000000e+00 0.0000000000000000e+00  0.0000000000000000e+00 -1.2841871869291161e-02 0.0000000000000000e+00  2.6187094068928458e-02 -1.2841871869291000e-02 0.0000000000000000e+00  0.0000000000000000e+00 0.0000000000000000e+00 -1.2841871869291173e-02  2.6187094068928555e-02 0.0000000000000000e+00 -1.2841871869291014e-02  0.0000000000000000e+00 -1.2841871869291126e-02 -1.2841871869291116e-02  2.6187094068928624e-02 -1.2841871869291102e-02 -1.2841871869291126e-02  </DataArray> 
</PointData> 
</Piece>
</UnstructuredGrid>
</VTKFile>