<?xml version="1.0"?>
<VTKFile type="UnstructuredGrid"  version="0.1"  >
<UnstructuredGrid>
<Piece  NumberOfPoints="58" NumberOfCells="148">
<Points>
<DataArray  type="Float64"  NumberOfComponents="3"  format="ascii">0.4023249999999999 0 0  0 0 -0.8046499999999999  0.266805 0 0  0 0 -0.6691299999999999  0.2844867357408777 0.2844867357408777 0  2.775557561562891e-17 0.4023249999999999 0  -0.2844867357408777 0.2844867357408777 0  -0.4023249999999999 2.775557561562891e-17 0  -0.2844867357408777 -0.2844867357408777 0  -2.775557561562891e-17 -0.4023249999999999 0  0.2844867357408777 -0.2844867357408777 0  0.1886596247544768 0.1886596247544768 0  2.775557561562891e-17 0.266805 0  -0.1886596247544767 0.1886596247544768 0  -0.266805 8.326672684688674e-17 0  -0.1886596247544768 -0.1886596247544767 0  -1.387778780781446e-16 -0.266805 0  0.1886596247544766 -0.1886596247544769 0  0.3686082568662342 0 -0.3224491190562394  0.2536108874396318 0 -0.6246500569025265  0.2466044134321161 0 -0.2554056152626437  0.1766587270840894 0 -0.5014405794480644  0.2606453980314651 0.2606453980314651 -0.3224491190562516  0.1793299782912967 0.1793299782912967 -0.6246500569025382  2.542952674080888e-17 0.3686082568662342 -0.3224491190562394  1.749609435972772e-17 0.2536108874396318 -0.6246500569025265  -0.2606453980314651 0.2606453980314651 -0.3224491190562516  -0.1793299782912967 0.1793299782912967 -0.6246500569025382  -0.3686082568662342 2.542952674080888e-17 -0.3224491190562394  -0.2536108874396318 1.749609435972772e-17 -0.6246500569025265  -0.2606453980314651 -0.2606453980314651 -0.3224491190562516  -0.1793299782912967 -0.1793299782912967 -0.6246500569025382  -2.542952674080888e-17 -0.3686082568662342 -0.3224491190562394  -1.749609435972772e-17 -0.2536108874396318 -0.6246500569025265  0.2606453980314651 -0.2606453980314651 -0.3224491190562516  0.1793299782912967 -0.1793299782912967 -0.6246500569025382  0.1743756530083801 0.17437565300838 -0.2554056152626451  0.1249165838769436 0.1249165838769436 -0.5014405794480633  2.565411984094344e-17 0.2466044134321161 -0.2554056152626437  1.837770902997769e-17 0.1766587270840894 -0.5014405794480644  -0.1743756530083802 0.1743756530083803 -0.2554056152626436  -0.1249165838769431 0.1249165838769432 -0.5014405794480646  -0.2466044134321161 7.696235952283031e-17 -0.2554056152626437  -0.1766587270840894 5.513312708993305e-17 -0.5014405794480644  -0.1743756530083802 -0.17437565300838 -0.2554056152626445  -0.1249165838769429 -0.1249165838769428 -0.5014405794480657  -1.282705992047172e-16 -0.2466044134321161 -0.2554056152626437  -9.188854514988842e-17 -0.1766587270840894 -0.5014405794480644  0.1743756530083804 -0.1743756530083806 -0.2554056152626407  0.1249165838769432 -0.1249165838769434 -0.5014405794480641  -0.2855690901238386 -0.1182865901238386 0  -0.2855690901238385 0.1182865901238386 0  -0.1182865901238386 0.2855690901238386 -0  0.1182865901238386 0.2855690901238386 0  0.2855690901238386 0.1182865901238386 0  0.2855690901238386 -0.1182865901238386 0  0.1182865901238385 -0.2855690901238386 0  -0.1182865901238387 -0.2855690901238386 0  </DataArray>
</Points>
<Cells>
<DataArray  type="UInt32"  Name="connectivity"  format="ascii">5 6 24 52  8 9 32 57  7 8 28 50  9 10 32 56  0 4 18 54  6 7 28 51  0 10 18 55  4 5 24 53  10 18 34 55  4 18 22 54  4 22 24 53  8 28 30 50  30 42 44 50  22 23 37 39  21 22 23 37  30 31 43 45  30 31 45 47  20 34 48 55  22 36 38 53  20 22 36 54  28 40 42 51  21 34 35 49  33 34 47 49  16 17 46 56  15 16 46 57  25 26 39 41  22 24 38 53  18 20 34 55  18 20 22 54  28 30 42 50  29 30 31 43  22 23 25 39  19 21 22 23  30 31 33 47  28 29 41 43  15 42 44 50  9 32 46 57  0 18 20 55  5 24 38 52  7 28 42 51  5 24 38 53  0 18 20 54  9 32 46 56  7 28 42 50  33 34 35 49  9 16 46 57  9 16 46 56  12 36 38 53  2 11 20 54  11 12 36 53  14 15 42 50  14 40 42 51  13 14 40 51  12 13 38 52  2 17 48 55  11 20 36 54  2 20 48 55  25 26 27 41  8 30 44 50  10 34 48 55  4 22 36 54  4 22 36 53  27 28 29 41  18 21 34 35  26 27 28 41  18 19 21 35  28 29 30 43  24 25 26 39  22 24 25 39  30 32 33 47  18 19 21 22  32 33 34 47  0 2 20 54  0 2 20 55  7 14 42 50  7 14 42 51  5 12 38 52  5 12 38 53  30 43 44 45  30 44 45 47  22 36 37 39  21 22 36 37  34 47 48 49  21 34 48 49  1 3 31 33  1 3 23 25  1 3 19 23  1 3 29 31  8 15 44 50  30 42 43 44  26 39 40 41  22 36 38 39  20 21 22 36  20 21 34 48  4 11 36 54  4 11 36 53  6 13 40 51  10 17 48 55  3 31 43 45  3 23 37 39  3 31 45 47  3 21 23 37  28 41 42 43  32 44 46 47  1 3 27 29  1 3 33 35  1 3 19 35  1 3 25 27  32 46 47 48  28 40 41 42  24 38 39 40  30 32 44 47  3 33 47 49  3 21 35 49  26 28 40 41  28 30 42 43  24 26 39 40  22 24 38 39  32 34 47 48  18 20 21 22  18 20 21 34  3 29 41 43  3 25 39 41  3 29 31 43  3 23 25 39  3 31 33 47  3 19 21 23  3 33 35 49  3 27 29 41  3 25 27 41  3 19 21 35  6 24 26 40  10 32 34 48  8 30 32 44  6 26 28 40  6 28 40 51  8 15 44 46  8 15 46 57  8 32 44 46  8 32 46 57  10 17 46 56  10 17 46 48  10 32 46 56  10 32 46 48  6 13 38 52  6 13 38 40  6 24 38 52  6 24 38 40  </DataArray>
<DataArray  type="UInt32"  Name="offsets"  format="ascii">4 8 12 16 20 24 28 32 36 40 44 48 52 56 60 64 68 72 76 80 84 88 92 96 100 104 108 112 116 120 124 128 132 136 140 144 148 152 156 160 164 168 172 176 180 184 188 192 196 200 204 208 212 216 220 224 228 232 236 240 244 248 252 256 260 264 268 272 276 280 284 288 292 296 300 304 308 312 316 320 324 328 332 336 340 344 348 352 356 360 364 368 372 376 380 384 388 392 396 400 404 408 412 416 420 424 428 432 436 440 444 448 452 456 460 464 468 472 476 480 484 488 492 496 500 504 508 512 516 520 524 528 532 536 540 544 548 552 556 560 564 568 572 576 580 584 588 592 </DataArray>
<DataArray  type="UInt8"  Name="types"  format="ascii">10 10 10 10 10 10 10 10 10 10 10 10 10 10 10 10 10 10 10 10 10 10 10 10 10 10 10 10 10 10 10 10 10 10 10 10 10 10 10 10 10 10 10 10 10 10 10 10 10 10 10 10 10 10 10 10 10 10 10 10 10 10 10 10 10 10 10 10 10 10 10 10 10 10 10 10 10 10 10 10 10 10 10 10 10 10 10 10 10 10 10 10 10 10 10 10 10 10 10 10 10 10 10 10 10 10 10 10 10 10 10 10 10 10 10 10 10 10 10 10 10 10 10 10 10 10 10 10 10 10 10 10 10 10 10 10 10 10 10 10 10 10 10 10 10 10 10 10 </DataArray>
</Cells>
<PointData  Vectors="f_37-0"> 
<DataArray  type="Float64"  Name="f_37-0"  NumberOfComponents="3" format="ascii">4.0267733163950180e-02 -2.1803958088324128e-02 0.0000000000000000e+00  -1.1198181153551721e-03 1.0958092196823542e-03 -5.8203973105123943e-02  7.1767877042911987e-02 -2.0097832874344738e-02 0.0000000000000000e+00  -3.7527503481469220e-04 -3.4402434841340887e-04 -8.7940864521650688e-02  4.7492318575477768e-02 1.4215738782428020e-02 0.0000000000000000e+00  2.1466030523711981e-02 4.0442243330827049e-02 0.0000000000000000e+00  -1.4941180755254706e-02 4.6420405881171356e-02 0.0000000000000000e+00  -3.8794896944648855e-02 2.3394151464663615e-02 0.0000000000000000e+00  -4.7800837236907805e-02 -1.4439523468962557e-02 0.0000000000000000e+00  -2.2641965603855844e-02 -3.7164275273539334e-02 0.0000000000000000e+00  1.4223663864148341e-02 -4.6464496962633703e-02 0.0000000000000000e+00  6.6228466372118544e-02 3.8015551971850269e-02 0.0000000000000000e+00  2.0370682473275590e-02 7.1770670015546822e-02 0.0000000000000000e+00  -3.8316717725809857e-02 6.7599352161201887e-02 0.0000000000000000e+00  -7.1467210013294646e-02 1.9534632075513488e-02 0.0000000000000000e+00  -6.7442341192790328e-02 -4.0241991746164198e-02 0.0000000000000000e+00  -1.9306250263401006e-02 -7.1546029674974712e-02 0.0000000000000000e+00  3.8443333424937602e-02 -6.7296374155435074e-02 0.0000000000000000e+00  3.6465598781543110e-02 6.7535129211157069e-03 -4.1564340003937612e-02  1.3525325520452594e-02 2.5026926502703530e-02 -6.6611979019300160e-02  7.1378497105948527e-02 4.0050663210275499e-03 -3.9493086893730316e-02  4.7350128439549798e-02 2.3242703842961350e-02 -7.5426481155541361e-02  2.2397670950601779e-02 3.0290607407366815e-02 -3.6966827336986328e-02  -9.8452908114186923e-03 2.5020058003664958e-02 -6.0894315249103589e-02  -8.9335030795471559e-03 3.7764538187310896e-02 -4.0175646001435791e-02  -2.9364112662672505e-02 1.2716627730143626e-02 -6.4570847998906847e-02  -3.3292269952563326e-02 2.0324688468520258e-02 -3.5394308602840575e-02  -2.8142911259577037e-02 -9.9036146343466358e-03 -6.7087427379844300e-02  -3.7476087863729822e-02 -1.0022362455076931e-02 -3.8908004889132541e-02  -1.2070471004466407e-02 -2.4397071888546458e-02 -6.5955018898290668e-02  -1.7699237698407796e-02 -3.3374584433253751e-02 -3.5495744870417976e-02  1.2200044160334636e-02 -2.6077795303302682e-02 -6.0600422307976770e-02  8.4140750326016107e-03 -3.9859136222439175e-02 -4.0111353930714112e-02  2.8894070951912942e-02 -1.2250032611383070e-02 -6.4450524984467059e-02  3.0900804647564437e-02 -2.2741357705355979e-02 -3.7512503916472269e-02  2.8254072651978226e-02 8.3732187509491865e-03 -6.5124015816349148e-02  4.9952354822669000e-02 5.4507412296034050e-02 -4.0499295041616132e-02  1.7381605369846641e-02 4.9027005176443851e-02 -7.6560580083767871e-02  -3.8120581373276680e-03 7.2444344207323041e-02 -3.9792528642132313e-02  -2.2414894492681834e-02 4.8232256912757392e-02 -7.5802589462460393e-02  -5.2872839522056791e-02 4.8109266888152591e-02 -3.9620054334246209e-02  -4.8801001024087728e-02 1.6648508244226035e-02 -7.5225551578575717e-02  -7.2658779188311470e-02 -3.5545890500935221e-03 -3.9955680941779585e-02  -4.7219309453528348e-02 -2.3096423381128404e-02 -7.5830205267613193e-02  -4.8778538640801943e-02 -5.3716761672775427e-02 -4.0241641383866690e-02  -1.6969093972243495e-02 -4.7960521901514480e-02 -7.6642906849778453e-02  3.5891131237519615e-03 -7.3933922130963975e-02 -4.0176521148840058e-02  2.2484833891140015e-02 -4.9034441180720617e-02 -7.6955464802284324e-02  5.3880129488924199e-02 -4.9315284672244893e-02 -4.0330777994706926e-02  4.8116592075191846e-02 -1.6958599122513657e-02 -7.6757151387306946e-02  -6.5288591046187339e-02 -5.0160954599900538e-03 0.0000000000000000e+00  -4.7937855372248830e-02 4.1234448969623409e-02 0.0000000000000000e+00  -5.2266997360480589e-03 6.2954419165424477e-02 0.0000000000000000e+00  4.2255165648965733e-02 4.9108487652832357e-02 0.0000000000000000e+00  6.4396685283582611e-02 4.8531551468903008e-03 0.0000000000000000e+00  4.8760258441048213e-02 -4.1974853053806271e-02 0.0000000000000000e+00  5.0977369062798995e-03 -6.2493535779297595e-02 0.0000000000000000e+00  -4.1550016908307862e-02 -4.7726629703517376e-02 0.0000000000000000e+00  </DataArray> 
</PointData> 
</Piece>
</UnstructuredGrid>
</VTKFile>