<?xml version="1.0"?>
<VTKFile type="UnstructuredGrid"  version="0.1"  >
<UnstructuredGrid>
<Piece  NumberOfPoints="58" NumberOfCells="148">
<Points>
<DataArray  type="Float64"  NumberOfComponents="3"  format="ascii">0.4023249999999999 0 0  0 0 -0.8046499999999999  0.266805 0 0  0 0 -0.6691299999999999  0.2844867357408777 0.2844867357408777 0  2.775557561562891e-17 0.4023249999999999 0  -0.2844867357408777 0.2844867357408777 0  -0.4023249999999999 2.775557561562891e-17 0  -0.2844867357408777 -0.2844867357408777 0  -2.775557561562891e-17 -0.4023249999999999 0  0.2844867357408777 -0.2844867357408777 0  0.1886596247544768 0.1886596247544768 0  2.775557561562891e-17 0.266805 0  -0.1886596247544767 0.1886596247544768 0  -0.266805 8.326672684688674e-17 0  -0.1886596247544768 -0.1886596247544767 0  -1.387778780781446e-16 -0.266805 0  0.1886596247544766 -0.1886596247544769 0  0.3686082568662342 0 -0.3224491190562394  0.2536108874396318 0 -0.6246500569025265  0.2466044134321161 0 -0.2554056152626437  0.1766587270840894 0 -0.5014405794480644  0.2606453980314651 0.2606453980314651 -0.3224491190562516  0.1793299782912967 0.1793299782912967 -0.6246500569025382  2.542952674080888e-17 0.3686082568662342 -0.3224491190562394  1.749609435972772e-17 0.2536108874396318 -0.6246500569025265  -0.2606453980314651 0.2606453980314651 -0.3224491190562516  -0.1793299782912967 0.1793299782912967 -0.6246500569025382  -0.3686082568662342 2.542952674080888e-17 -0.3224491190562394  -0.2536108874396318 1.749609435972772e-17 -0.6246500569025265  -0.2606453980314651 -0.2606453980314651 -0.3224491190562516  -0.1793299782912967 -0.1793299782912967 -0.6246500569025382  -2.542952674080888e-17 -0.3686082568662342 -0.3224491190562394  -1.749609435972772e-17 -0.2536108874396318 -0.6246500569025265  0.2606453980314651 -0.2606453980314651 -0.3224491190562516  0.1793299782912967 -0.1793299782912967 -0.6246500569025382  0.1743756530083801 0.17437565300838 -0.2554056152626451  0.1249165838769436 0.1249165838769436 -0.5014405794480633  2.565411984094344e-17 0.2466044134321161 -0.2554056152626437  1.837770902997769e-17 0.1766587270840894 -0.5014405794480644  -0.1743756530083802 0.1743756530083803 -0.2554056152626436  -0.1249165838769431 0.1249165838769432 -0.5014405794480646  -0.2466044134321161 7.696235952283031e-17 -0.2554056152626437  -0.1766587270840894 5.513312708993305e-17 -0.5014405794480644  -0.1743756530083802 -0.17437565300838 -0.2554056152626445  -0.1249165838769429 -0.1249165838769428 -0.5014405794480657  -1.282705992047172e-16 -0.2466044134321161 -0.2554056152626437  -9.188854514988842e-17 -0.1766587270840894 -0.5014405794480644  0.1743756530083804 -0.1743756530083806 -0.2554056152626407  0.1249165838769432 -0.1249165838769434 -0.5014405794480641  -0.2855690901238386 -0.1182865901238386 0  -0.2855690901238385 0.1182865901238386 0  -0.1182865901238386 0.2855690901238386 -0  0.1182865901238386 0.2855690901238386 0  0.2855690901238386 0.1182865901238386 0  0.2855690901238386 -0.1182865901238386 0  0.1182865901238385 -0.2855690901238386 0  -0.1182865901238387 -0.2855690901238386 0  </DataArray>
</Points>
<Cells>
<DataArray  type="UInt32"  Name="connectivity"  format="ascii">5 6 24 52  8 9 32 57  7 8 28 50  9 10 32 56  0 4 18 54  6 7 28 51  0 10 18 55  4 5 24 53  10 18 34 55  4 18 22 54  4 22 24 53  8 28 30 50  30 42 44 50  22 23 37 39  21 22 23 37  30 31 43 45  30 31 45 47  20 34 48 55  22 36 38 53  20 22 36 54  28 40 42 51  21 34 35 49  33 34 47 49  16 17 46 56  15 16 46 57  25 26 39 41  22 24 38 53  18 20 34 55  18 20 22 54  28 30 42 50  29 30 31 43  22 23 25 39  19 21 22 23  30 31 33 47  28 29 41 43  15 42 44 50  9 32 46 57  0 18 20 55  5 24 38 52  7 28 42 51  5 24 38 53  0 18 20 54  9 32 46 56  7 28 42 50  33 34 35 49  9 16 46 57  9 16 46 56  12 36 38 53  2 11 20 54  11 12 36 53  14 15 42 50  14 40 42 51  13 14 40 51  12 13 38 52  2 17 48 55  11 20 36 54  2 20 48 55  25 26 27 41  8 30 44 50  10 34 48 55  4 22 36 54  4 22 36 53  27 28 29 41  18 21 34 35  26 27 28 41  18 19 21 35  28 29 30 43  24 25 26 39  22 24 25 39  30 32 33 47  18 19 21 22  32 33 34 47  0 2 20 54  0 2 20 55  7 14 42 50  7 14 42 51  5 12 38 52  5 12 38 53  30 43 44 45  30 44 45 47  22 36 37 39  21 22 36 37  34 47 48 49  21 34 48 49  1 3 31 33  1 3 23 25  1 3 19 23  1 3 29 31  8 15 44 50  30 42 43 44  26 39 40 41  22 36 38 39  20 21 22 36  20 21 34 48  4 11 36 54  4 11 36 53  6 13 40 51  10 17 48 55  3 31 43 45  3 23 37 39  3 31 45 47  3 21 23 37  28 41 42 43  32 44 46 47  1 3 27 29  1 3 33 35  1 3 19 35  1 3 25 27  32 46 47 48  28 40 41 42  24 38 39 40  30 32 44 47  3 33 47 49  3 21 35 49  26 28 40 41  28 30 42 43  24 26 39 40  22 24 38 39  32 34 47 48  18 20 21 22  18 20 21 34  3 29 41 43  3 25 39 41  3 29 31 43  3 23 25 39  3 31 33 47  3 19 21 23  3 33 35 49  3 27 29 41  3 25 27 41  3 19 21 35  6 24 26 40  10 32 34 48  8 30 32 44  6 26 28 40  6 28 40 51  8 15 44 46  8 15 46 57  8 32 44 46  8 32 46 57  10 17 46 56  10 17 46 48  10 32 46 56  10 32 46 48  6 13 38 52  6 13 38 40  6 24 38 52  6 24 38 40  </DataArray>
<DataArray  type="UInt32"  Name="offsets"  format="ascii">4 8 12 16 20 24 28 32 36 40 44 48 52 56 60 64 68 72 76 80 84 88 92 96 100 104 108 112 116 120 124 128 132 136 140 144 148 152 156 160 164 168 172 176 180 184 188 192 196 200 204 208 212 216 220 224 228 232 236 240 244 248 252 256 260 264 268 272 276 280 284 288 292 296 300 304 308 312 316 320 324 328 332 336 340 344 348 352 356 360 364 368 372 376 380 384 388 392 396 400 404 408 412 416 420 424 428 432 436 440 444 448 452 456 460 464 468 472 476 480 484 488 492 496 500 504 508 512 516 520 524 528 532 536 540 544 548 552 556 560 564 568 572 576 580 584 588 592 </DataArray>
<DataArray  type="UInt8"  Name="types"  format="ascii">10 10 10 10 10 10 10 10 10 10 10 10 10 10 10 10 10 10 10 10 10 10 10 10 10 10 10 10 10 10 10 10 10 10 10 10 10 10 10 10 10 10 10 10 10 10 10 10 10 10 10 10 10 10 10 10 10 10 10 10 10 10 10 10 10 10 10 10 10 10 10 10 10 10 10 10 10 10 10 10 10 10 10 10 10 10 10 10 10 10 10 10 10 10 10 10 10 10 10 10 10 10 10 10 10 10 10 10 10 10 10 10 10 10 10 10 10 10 10 10 10 10 10 10 10 10 10 10 10 10 10 10 10 10 10 10 10 10 10 10 10 10 10 10 10 10 10 10 </DataArray>
</Cells>
<PointData  Vectors="f_37-0"> 
<DataArray  type="Float64"  Name="f_37-0"  NumberOfComponents="3" format="ascii">4.6161056013313689e-02 -2.7576519031586533e-02 0.0000000000000000e+00  -2.7228222555830905e-03 7.4325817868003995e-04 -6.8308555839483101e-02  8.9271309587851122e-02 -2.6530170485521826e-02 0.0000000000000000e+00  -9.6970602204223357e-04 -9.3209866624391791e-04 -1.2111059490500869e-01  5.5969062519083540e-02 1.2154252095327186e-02 0.0000000000000000e+00  2.6619777663504946e-02 4.5234785873249111e-02 0.0000000000000000e+00  -1.6254306591569647e-02 5.5113051000131974e-02 0.0000000000000000e+00  -4.1873661214145007e-02 2.9975754744267981e-02 0.0000000000000000e+00  -5.8015461966222377e-02 -1.2831630015236944e-02 0.0000000000000000e+00  -2.8975925777210046e-02 -4.0084868591794699e-02 0.0000000000000000e+00  1.5177193927855904e-02 -5.5594878321386952e-02 0.0000000000000000e+00  8.2666235456474571e-02 4.5743205446827029e-02 0.0000000000000000e+00  2.6479279161345667e-02 8.8916036635228929e-02 0.0000000000000000e+00  -4.6432505016197320e-02 8.4407060315071752e-02 0.0000000000000000e+00  -8.8570045410562681e-02 2.5252459885641333e-02 0.0000000000000000e+00  -8.4431098001087626e-02 -4.8836552795013574e-02 0.0000000000000000e+00  -2.5070504688583458e-02 -8.8768293195992068e-02 0.0000000000000000e+00  4.6855417295418873e-02 -8.4475991951969739e-02 0.0000000000000000e+00  4.4177655305724227e-02 7.1299198451882867e-03 -5.5959408030628342e-02  1.9201387277441168e-02 2.6676037577390566e-02 -8.7901170392527345e-02  8.9048280646835287e-02 4.2397993490277683e-03 -5.3033651416023869e-02  5.9582098481963511e-02 2.8998601751179361e-02 -1.0158162405061152e-01  2.8307643298426492e-02 3.5040231446223084e-02 -4.7245271446855121e-02  -1.0470258559683469e-02 2.6687837256353888e-02 -7.4821821190040189e-02  -1.1327498813701379e-02 4.6558529078840567e-02 -5.3416247434771615e-02  -3.4629878661215786e-02 1.6669439525065839e-02 -8.2159271725421312e-02  -4.0562023094344514e-02 2.7581070319783421e-02 -4.5164864167641892e-02  -3.2581656233702357e-02 -1.0186142124623593e-02 -8.8387487109508403e-02  -4.5042400045009159e-02 -1.3197210612165259e-02 -5.1061782022392144e-02  -1.5190054864359252e-02 -2.7082187216331332e-02 -8.5880311498694975e-02  -2.0068421223530624e-02 -4.0830680199434082e-02 -4.5439770390076413e-02  1.4846271066568637e-02 -2.9649043971782030e-02 -7.4831651548835379e-02  9.4807972208512722e-03 -5.1199076814933034e-02 -5.3357887080314775e-02  3.2722767523495518e-02 -1.4932945641516109e-02 -8.0540235585693232e-02  3.5699671768084848e-02 -3.0656971477966033e-02 -4.8463092902129419e-02  3.3754484504082159e-02 6.7357323839378055e-03 -8.3674306223293665e-02  6.2962940390385469e-02 6.7617840379549946e-02 -5.3968843013361578e-02  2.1544178545151171e-02 6.1082974195485217e-02 -1.0307864612694168e-01  -4.3274915017045938e-03 9.0145870937975783e-02 -5.3354064700223178e-02  -2.8377284941819639e-02 6.0757767788193993e-02 -1.0196961553582613e-01  -6.5563607821919181e-02 6.0662083320786875e-02 -5.3214263684236214e-02  -6.1235955564148500e-02 2.1187382037114632e-02 -1.0115354562593727e-01  -9.0547867332136642e-02 -3.9027872324421857e-03 -5.3285084095293214e-02  -5.9275039558877037e-02 -2.8554620153227715e-02 -1.0205877486911367e-01  -6.0990414179831198e-02 -6.6893087185221106e-02 -5.3570809195934176e-02  -2.1153660915908513e-02 -6.0041319371169091e-02 -1.0270688356261783e-01  4.0052880059000115e-03 -9.2284910366910139e-02 -5.3611685194688653e-02  2.8320767934943113e-02 -6.2146830051287169e-02 -1.0360190885305633e-01  6.6754983156972800e-02 -6.2416580779356669e-02 -5.3764637221744058e-02  6.0020487352668836e-02 -2.1606855014063456e-02 -1.0295827916646587e-01  -8.1532223244526025e-02 -4.8394914839010829e-03 0.0000000000000000e+00  -5.8988836966706322e-02 5.2307735960869524e-02 0.0000000000000000e+00  -4.9878825796695293e-03 7.7731028464370411e-02 0.0000000000000000e+00  5.3740775043257617e-02 5.9674911755975099e-02 0.0000000000000000e+00  8.0639505195766847e-02 4.4646733295738809e-03 0.0000000000000000e+00  5.9757613464670144e-02 -5.3668644800628905e-02 0.0000000000000000e+00  4.9845204587555050e-03 -7.7812098055627249e-02 0.0000000000000000e+00  -5.2739835087252183e-02 -5.8040109807576713e-02 0.0000000000000000e+00  </DataArray> 
</PointData> 
</Piece>
</UnstructuredGrid>
</VTKFile>