<?xml version="1.0"?>
<VTKFile type="UnstructuredGrid"  version="0.1"  >
<UnstructuredGrid>
<Piece  NumberOfPoints="58" NumberOfCells="148">
<Points>
<DataArray  type="Float64"  NumberOfComponents="3"  format="ascii">0.4023249999999999 0 0  0 0 -0.8046499999999999  0.266805 0 0  0 0 -0.6691299999999999  0.2844867357408777 0.2844867357408777 0  2.775557561562891e-17 0.4023249999999999 0  -0.2844867357408777 0.2844867357408777 0  -0.4023249999999999 2.775557561562891e-17 0  -0.2844867357408777 -0.2844867357408777 0  -2.775557561562891e-17 -0.4023249999999999 0  0.2844867357408777 -0.2844867357408777 0  0.1886596247544768 0.1886596247544768 0  2.775557561562891e-17 0.266805 0  -0.1886596247544767 0.1886596247544768 0  -0.266805 8.326672684688674e-17 0  -0.1886596247544768 -0.1886596247544767 0  -1.387778780781446e-16 -0.266805 0  0.1886596247544766 -0.1886596247544769 0  0.3686082568662342 0 -0.3224491190562394  0.2536108874396318 0 -0.6246500569025265  0.2466044134321161 0 -0.2554056152626437  0.1766587270840894 0 -0.5014405794480644  0.2606453980314651 0.2606453980314651 -0.3224491190562516  0.1793299782912967 0.1793299782912967 -0.6246500569025382  2.542952674080888e-17 0.3686082568662342 -0.3224491190562394  1.749609435972772e-17 0.2536108874396318 -0.6246500569025265  -0.2606453980314651 0.2606453980314651 -0.3224491190562516  -0.1793299782912967 0.1793299782912967 -0.6246500569025382  -0.3686082568662342 2.542952674080888e-17 -0.3224491190562394  -0.2536108874396318 1.749609435972772e-17 -0.6246500569025265  -0.2606453980314651 -0.2606453980314651 -0.3224491190562516  -0.1793299782912967 -0.1793299782912967 -0.6246500569025382  -2.542952674080888e-17 -0.3686082568662342 -0.3224491190562394  -1.749609435972772e-17 -0.2536108874396318 -0.6246500569025265  0.2606453980314651 -0.2606453980314651 -0.3224491190562516  0.1793299782912967 -0.1793299782912967 -0.6246500569025382  0.1743756530083801 0.17437565300838 -0.2554056152626451  0.1249165838769436 0.1249165838769436 -0.5014405794480633  2.565411984094344e-17 0.2466044134321161 -0.2554056152626437  1.837770902997769e-17 0.1766587270840894 -0.5014405794480644  -0.1743756530083802 0.1743756530083803 -0.2554056152626436  -0.1249165838769431 0.1249165838769432 -0.5014405794480646  -0.2466044134321161 7.696235952283031e-17 -0.2554056152626437  -0.1766587270840894 5.513312708993305e-17 -0.5014405794480644  -0.1743756530083802 -0.17437565300838 -0.2554056152626445  -0.1249165838769429 -0.1249165838769428 -0.5014405794480657  -1.282705992047172e-16 -0.2466044134321161 -0.2554056152626437  -9.188854514988842e-17 -0.1766587270840894 -0.5014405794480644  0.1743756530083804 -0.1743756530083806 -0.2554056152626407  0.1249165838769432 -0.1249165838769434 -0.5014405794480641  -0.2855690901238386 -0.1182865901238386 0  -0.2855690901238385 0.1182865901238386 0  -0.1182865901238386 0.2855690901238386 -0  0.1182865901238386 0.2855690901238386 0  0.2855690901238386 0.1182865901238386 0  0.2855690901238386 -0.1182865901238386 0  0.1182865901238385 -0.2855690901238386 0  -0.1182865901238387 -0.2855690901238386 0  </DataArray>
</Points>
<Cells>
<DataArray  type="UInt32"  Name="connectivity"  format="ascii">5 6 24 52  8 9 32 57  7 8 28 50  9 10 32 56  0 4 18 54  6 7 28 51  0 10 18 55  4 5 24 53  10 18 34 55  4 18 22 54  4 22 24 53  8 28 30 50  30 42 44 50  22 23 37 39  21 22 23 37  30 31 43 45  30 31 45 47  20 34 48 55  22 36 38 53  20 22 36 54  28 40 42 51  21 34 35 49  33 34 47 49  16 17 46 56  15 16 46 57  25 26 39 41  22 24 38 53  18 20 34 55  18 20 22 54  28 30 42 50  29 30 31 43  22 23 25 39  19 21 22 23  30 31 33 47  28 29 41 43  15 42 44 50  9 32 46 57  0 18 20 55  5 24 38 52  7 28 42 51  5 24 38 53  0 18 20 54  9 32 46 56  7 28 42 50  33 34 35 49  9 16 46 57  9 16 46 56  12 36 38 53  2 11 20 54  11 12 36 53  14 15 42 50  14 40 42 51  13 14 40 51  12 13 38 52  2 17 48 55  11 20 36 54  2 20 48 55  25 26 27 41  8 30 44 50  10 34 48 55  4 22 36 54  4 22 36 53  27 28 29 41  18 21 34 35  26 27 28 41  18 19 21 35  28 29 30 43  24 25 26 39  22 24 25 39  30 32 33 47  18 19 21 22  32 33 34 47  0 2 20 54  0 2 20 55  7 14 42 50  7 14 42 51  5 12 38 52  5 12 38 53  30 43 44 45  30 44 45 47  22 36 37 39  21 22 36 37  34 47 48 49  21 34 48 49  1 3 31 33  1 3 23 25  1 3 19 23  1 3 29 31  8 15 44 50  30 42 43 44  26 39 40 41  22 36 38 39  20 21 22 36  20 21 34 48  4 11 36 54  4 11 36 53  6 13 40 51  10 17 48 55  3 31 43 45  3 23 37 39  3 31 45 47  3 21 23 37  28 41 42 43  32 44 46 47  1 3 27 29  1 3 33 35  1 3 19 35  1 3 25 27  32 46 47 48  28 40 41 42  24 38 39 40  30 32 44 47  3 33 47 49  3 21 35 49  26 28 40 41  28 30 42 43  24 26 39 40  22 24 38 39  32 34 47 48  18 20 21 22  18 20 21 34  3 29 41 43  3 25 39 41  3 29 31 43  3 23 25 39  3 31 33 47  3 19 21 23  3 33 35 49  3 27 29 41  3 25 27 41  3 19 21 35  6 24 26 40  10 32 34 48  8 30 32 44  6 26 28 40  6 28 40 51  8 15 44 46  8 15 46 57  8 32 44 46  8 32 46 57  10 17 46 56  10 17 46 48  10 32 46 56  10 32 46 48  6 13 38 52  6 13 38 40  6 24 38 52  6 24 38 40  </DataArray>
<DataArray  type="UInt32"  Name="offsets"  format="ascii">4 8 12 16 20 24 28 32 36 40 44 48 52 56 60 64 68 72 76 80 84 88 92 96 100 104 108 112 116 120 124 128 132 136 140 144 148 152 156 160 164 168 172 176 180 184 188 192 196 200 204 208 212 216 220 224 228 232 236 240 244 248 252 256 260 264 268 272 276 280 284 288 292 296 300 304 308 312 316 320 324 328 332 336 340 344 348 352 356 360 364 368 372 376 380 384 388 392 396 400 404 408 412 416 420 424 428 432 436 440 444 448 452 456 460 464 468 472 476 480 484 488 492 496 500 504 508 512 516 520 524 528 532 536 540 544 548 552 556 560 564 568 572 576 580 584 588 592 </DataArray>
<DataArray  type="UInt8"  Name="types"  format="ascii">10 10 10 10 10 10 10 10 10 10 10 10 10 10 10 10 10 10 10 10 10 10 10 10 10 10 10 10 10 10 10 10 10 10 10 10 10 10 10 10 10 10 10 10 10 10 10 10 10 10 10 10 10 10 10 10 10 10 10 10 10 10 10 10 10 10 10 10 10 10 10 10 10 10 10 10 10 10 10 10 10 10 10 10 10 10 10 10 10 10 10 10 10 10 10 10 10 10 10 10 10 10 10 10 10 10 10 10 10 10 10 10 10 10 10 10 10 10 10 10 10 10 10 10 10 10 10 10 10 10 10 10 10 10 10 10 10 10 10 10 10 10 10 10 10 10 10 10 </DataArray>
</Cells>
<PointData  Vectors="f_37-0"> 
<DataArray  type="Float64"  Name="f_37-0"  NumberOfComponents="3" format="ascii">1.5887593764055762e-02 -8.0983012374930396e-03 0.0000000000000000e+00  -1.3878441992623439e-04 9.7231695069149092e-05 -1.2341942605485611e-02  2.6026448343687239e-02 -6.9970750796608406e-03 0.0000000000000000e+00  4.0919686354165592e-05 4.3392018166621494e-05 -1.5076583968354219e-02  1.8727971344395859e-02 6.7718325290639925e-03 0.0000000000000000e+00  8.3254369544699201e-03 1.6168581552720836e-02 0.0000000000000000e+00  -6.4328328644602068e-03 1.8580470972925457e-02 0.0000000000000000e+00  -1.5850453339233950e-02 8.3859388845392707e-03 0.0000000000000000e+00  -1.8666602840183934e-02 -6.9127666835190182e-03 0.0000000000000000e+00  -8.4903056164559228e-03 -1.5279058708384731e-02 0.0000000000000000e+00  5.9724860577824793e-03 -1.8338215874389947e-02 0.0000000000000000e+00  2.4605607297121093e-02 1.4700574980947796e-02 0.0000000000000000e+00  7.2010573253107196e-03 2.6248982661309931e-02 0.0000000000000000e+00  -1.4402952186440334e-02 2.5165736760643511e-02 0.0000000000000000e+00  -2.6172234968845590e-02 7.0210633374358849e-03 0.0000000000000000e+00  -2.4635637155246227e-02 -1.5500922929063920e-02 0.0000000000000000e+00  -6.7035479365630517e-03 -2.6323037302223112e-02 0.0000000000000000e+00  1.4343105922676395e-02 -2.4851473177414929e-02 0.0000000000000000e+00  1.3484241574795022e-02 2.1076005912130736e-03 -1.0144402997235303e-02  3.3149576314904922e-03 8.3371765076928808e-03 -1.4650114658547472e-02  2.5335143564594952e-02 1.0096838166045231e-03 -9.0838722288515642e-03  1.4603646973762135e-02 6.5080798550129805e-03 -1.5497303667249253e-02  8.5932207881272860e-03 1.1237802671374413e-02 -9.7130629742762618e-03  -3.4591339024961638e-03 8.3726068727814299e-03 -1.4734749200100816e-02  -2.2526198340305521e-03 1.3711992754414239e-02 -9.8910445921546221e-03  -9.0918470456164344e-03 2.8939606812504351e-03 -1.4646027925820251e-02  -1.1294449331125667e-02 7.4961107604320076e-03 -9.1605800748247035e-03  -8.2034843384305740e-03 -3.6791217771406084e-03 -1.4476436576270556e-02  -1.4111804043564210e-02 -2.4765902315618846e-03 -9.8110441717323381e-03  -3.1234127633136652e-03 -8.0339117210135053e-03 -1.4770796757178004e-02  -7.6752980201883845e-03 -1.1423639817687372e-02 -9.3307814996129411e-03  3.6247215507982972e-03 -8.3738566770086096e-03 -1.4715609067748553e-02  2.2018781878179365e-03 -1.3859547374405427e-02 -9.8348031838257442e-03  9.2646384378789106e-03 -3.0412940167696798e-03 -1.5015260215886317e-02  1.1038767482801227e-02 -8.0965192322399807e-03 -9.7104684982584014e-03  8.2419305524740281e-03 3.4543574444340064e-03 -1.4831150230225690e-02  1.7911985382568756e-02 1.8929318885962991e-02 -9.4787708165691032e-03  6.3169858023637109e-03 1.4975476034262138e-02 -1.6012812426280193e-02  -8.6621041151306588e-04 2.5683177982034209e-02 -9.2046271573621406e-03  -5.9829405532747758e-03 1.4873021382866228e-02 -1.5756329316275727e-02  -1.8117011372952720e-02 1.7116072795078340e-02 -9.1017815727878707e-03  -1.4623024324839638e-02 5.4486850628642121e-03 -1.5614891986240963e-02  -2.5837166089979099e-02 -7.2586063506812249e-04 -9.4730139216595306e-03  -1.4830678996160772e-02 -6.5212603424558971e-03 -1.5702686629804074e-02  -1.7899895289733909e-02 -1.8611153585556817e-02 -9.4980278117294415e-03  -6.1517806645852713e-03 -1.4763279568603510e-02 -1.6378248275346251e-02  5.4898425171092530e-04 -2.6238595687656550e-02 -9.5581298074934890e-03  6.1319105002220131e-03 -1.5060024708099366e-02 -1.6072372135665904e-02  1.8572442709710053e-02 -1.7404944095928538e-02 -9.5068261923261042e-03  1.4703975037032963e-02 -5.9188985052017256e-03 -1.6346803539369341e-02  -2.3985739891151006e-02 -2.4280523606876104e-03 0.0000000000000000e+00  -1.8241100138511664e-02 1.4833387775591480e-02 0.0000000000000000e+00  -2.5147880765703659e-03 2.3774301042884881e-02 0.0000000000000000e+00  1.5067266183917471e-02 1.8716327633461260e-02 0.0000000000000000e+00  2.3656930581578233e-02 2.5491440376739461e-03 0.0000000000000000e+00  1.8421510310378343e-02 -1.4866359642379633e-02 0.0000000000000000e+00  2.4070654098455320e-03 -2.3287669856604291e-02 0.0000000000000000e+00  -1.5045062772254588e-02 -1.8304310913268715e-02 0.0000000000000000e+00  </DataArray> 
</PointData> 
</Piece>
</UnstructuredGrid>
</VTKFile>