<?xml version="1.0"?>
<VTKFile type="UnstructuredGrid"  version="0.1"  >
<UnstructuredGrid>
<Piece  NumberOfPoints="58" NumberOfCells="148">
<Points>
<DataArray  type="Float64"  NumberOfComponents="3"  format="ascii">0.4023249999999999 0 0  0 0 -0.8046499999999999  0.266805 0 0  0 0 -0.6691299999999999  0.2844867357408777 0.2844867357408777 0  2.775557561562891e-17 0.4023249999999999 0  -0.2844867357408777 0.2844867357408777 0  -0.4023249999999999 2.775557561562891e-17 0  -0.2844867357408777 -0.2844867357408777 0  -2.775557561562891e-17 -0.4023249999999999 0  0.2844867357408777 -0.2844867357408777 0  0.1886596247544768 0.1886596247544768 0  2.775557561562891e-17 0.266805 0  -0.1886596247544767 0.1886596247544768 0  -0.266805 8.326672684688674e-17 0  -0.1886596247544768 -0.1886596247544767 0  -1.387778780781446e-16 -0.266805 0  0.1886596247544766 -0.1886596247544769 0  0.3686082568662342 0 -0.3224491190562394  0.2536108874396318 0 -0.6246500569025265  0.2466044134321161 0 -0.2554056152626437  0.1766587270840894 0 -0.5014405794480644  0.2606453980314651 0.2606453980314651 -0.3224491190562516  0.1793299782912967 0.1793299782912967 -0.6246500569025382  2.542952674080888e-17 0.3686082568662342 -0.3224491190562394  1.749609435972772e-17 0.2536108874396318 -0.6246500569025265  -0.2606453980314651 0.2606453980314651 -0.3224491190562516  -0.1793299782912967 0.1793299782912967 -0.6246500569025382  -0.3686082568662342 2.542952674080888e-17 -0.3224491190562394  -0.2536108874396318 1.749609435972772e-17 -0.6246500569025265  -0.2606453980314651 -0.2606453980314651 -0.3224491190562516  -0.1793299782912967 -0.1793299782912967 -0.6246500569025382  -2.542952674080888e-17 -0.3686082568662342 -0.3224491190562394  -1.749609435972772e-17 -0.2536108874396318 -0.6246500569025265  0.2606453980314651 -0.2606453980314651 -0.3224491190562516  0.1793299782912967 -0.1793299782912967 -0.6246500569025382  0.1743756530083801 0.17437565300838 -0.2554056152626451  0.1249165838769436 0.1249165838769436 -0.5014405794480633  2.565411984094344e-17 0.2466044134321161 -0.2554056152626437  1.837770902997769e-17 0.1766587270840894 -0.5014405794480644  -0.1743756530083802 0.1743756530083803 -0.2554056152626436  -0.1249165838769431 0.1249165838769432 -0.5014405794480646  -0.2466044134321161 7.696235952283031e-17 -0.2554056152626437  -0.1766587270840894 5.513312708993305e-17 -0.5014405794480644  -0.1743756530083802 -0.17437565300838 -0.2554056152626445  -0.1249165838769429 -0.1249165838769428 -0.5014405794480657  -1.282705992047172e-16 -0.2466044134321161 -0.2554056152626437  -9.188854514988842e-17 -0.1766587270840894 -0.5014405794480644  0.1743756530083804 -0.1743756530083806 -0.2554056152626407  0.1249165838769432 -0.1249165838769434 -0.5014405794480641  -0.2855690901238386 -0.1182865901238386 0  -0.2855690901238385 0.1182865901238386 0  -0.1182865901238386 0.2855690901238386 -0  0.1182865901238386 0.2855690901238386 0  0.2855690901238386 0.1182865901238386 0  0.2855690901238386 -0.1182865901238386 0  0.1182865901238385 -0.2855690901238386 0  -0.1182865901238387 -0.2855690901238386 0  </DataArray>
</Points>
<Cells>
<DataArray  type="UInt32"  Name="connectivity"  format="ascii">5 6 24 52  8 9 32 57  7 8 28 50  9 10 32 56  0 4 18 54  6 7 28 51  0 10 18 55  4 5 24 53  10 18 34 55  4 18 22 54  4 22 24 53  8 28 30 50  30 42 44 50  22 23 37 39  21 22 23 37  30 31 43 45  30 31 45 47  20 34 48 55  22 36 38 53  20 22 36 54  28 40 42 51  21 34 35 49  33 34 47 49  16 17 46 56  15 16 46 57  25 26 39 41  22 24 38 53  18 20 34 55  18 20 22 54  28 30 42 50  29 30 31 43  22 23 25 39  19 21 22 23  30 31 33 47  28 29 41 43  15 42 44 50  9 32 46 57  0 18 20 55  5 24 38 52  7 28 42 51  5 24 38 53  0 18 20 54  9 32 46 56  7 28 42 50  33 34 35 49  9 16 46 57  9 16 46 56  12 36 38 53  2 11 20 54  11 12 36 53  14 15 42 50  14 40 42 51  13 14 40 51  12 13 38 52  2 17 48 55  11 20 36 54  2 20 48 55  25 26 27 41  8 30 44 50  10 34 48 55  4 22 36 54  4 22 36 53  27 28 29 41  18 21 34 35  26 27 28 41  18 19 21 35  28 29 30 43  24 25 26 39  22 24 25 39  30 32 33 47  18 19 21 22  32 33 34 47  0 2 20 54  0 2 20 55  7 14 42 50  7 14 42 51  5 12 38 52  5 12 38 53  30 43 44 45  30 44 45 47  22 36 37 39  21 22 36 37  34 47 48 49  21 34 48 49  1 3 31 33  1 3 23 25  1 3 19 23  1 3 29 31  8 15 44 50  30 42 43 44  26 39 40 41  22 36 38 39  20 21 22 36  20 21 34 48  4 11 36 54  4 11 36 53  6 13 40 51  10 17 48 55  3 31 43 45  3 23 37 39  3 31 45 47  3 21 23 37  28 41 42 43  32 44 46 47  1 3 27 29  1 3 33 35  1 3 19 35  1 3 25 27  32 46 47 48  28 40 41 42  24 38 39 40  30 32 44 47  3 33 47 49  3 21 35 49  26 28 40 41  28 30 42 43  24 26 39 40  22 24 38 39  32 34 47 48  18 20 21 22  18 20 21 34  3 29 41 43  3 25 39 41  3 29 31 43  3 23 25 39  3 31 33 47  3 19 21 23  3 33 35 49  3 27 29 41  3 25 27 41  3 19 21 35  6 24 26 40  10 32 34 48  8 30 32 44  6 26 28 40  6 28 40 51  8 15 44 46  8 15 46 57  8 32 44 46  8 32 46 57  10 17 46 56  10 17 46 48  10 32 46 56  10 32 46 48  6 13 38 52  6 13 38 40  6 24 38 52  6 24 38 40  </DataArray>
<DataArray  type="UInt32"  Name="offsets"  format="ascii">4 8 12 16 20 24 28 32 36 40 44 48 52 56 60 64 68 72 76 80 84 88 92 96 100 104 108 112 116 120 124 128 132 136 140 144 148 152 156 160 164 168 172 176 180 184 188 192 196 200 204 208 212 216 220 224 228 232 236 240 244 248 252 256 260 264 268 272 276 280 284 288 292 296 300 304 308 312 316 320 324 328 332 336 340 344 348 352 356 360 364 368 372 376 380 384 388 392 396 400 404 408 412 416 420 424 428 432 436 440 444 448 452 456 460 464 468 472 476 480 484 488 492 496 500 504 508 512 516 520 524 528 532 536 540 544 548 552 556 560 564 568 572 576 580 584 588 592 </DataArray>
<DataArray  type="UInt8"  Name="types"  format="ascii">10 10 10 10 10 10 10 10 10 10 10 10 10 10 10 10 10 10 10 10 10 10 10 10 10 10 10 10 10 10 10 10 10 10 10 10 10 10 10 10 10 10 10 10 10 10 10 10 10 10 10 10 10 10 10 10 10 10 10 10 10 10 10 10 10 10 10 10 10 10 10 10 10 10 10 10 10 10 10 10 10 10 10 10 10 10 10 10 10 10 10 10 10 10 10 10 10 10 10 10 10 10 10 10 10 10 10 10 10 10 10 10 10 10 10 10 10 10 10 10 10 10 10 10 10 10 10 10 10 10 10 10 10 10 10 10 10 10 10 10 10 10 10 10 10 10 10 10 </DataArray>
</Cells>
<PointData  Vectors="f_37-0"> 
<DataArray  type="Float64"  Name="f_37-0"  NumberOfComponents="3" format="ascii">3.5101432091837484e-02 -1.8700600918840314e-02 0.0000000000000000e+00  -6.6396194564157386e-04 6.0912884249210723e-04 -4.8927632505746284e-02  6.0817276393043816e-02 -1.6818578852045581e-02 0.0000000000000000e+00  -1.4765907224823430e-04 -1.7559474986289950e-04 -6.7390352434568770e-02  4.1309393343314835e-02 1.3229496778309802e-02 0.0000000000000000e+00  1.8605752212514745e-02 3.5497651772397935e-02 0.0000000000000000e+00  -1.3153089403107681e-02 4.0497959738093170e-02 0.0000000000000000e+00  -3.4399458501654004e-02 1.9799328267807441e-02 0.0000000000000000e+00  -4.1230268271562308e-02 -1.3544344611244603e-02 0.0000000000000000e+00  -1.9406503495446158e-02 -3.3111350923879852e-02 0.0000000000000000e+00  1.2442231525262085e-02 -4.0354674521351296e-02 0.0000000000000000e+00  5.6335075375862943e-02 3.2617799912764693e-02 0.0000000000000000e+00  1.7139838367550359e-02 6.0919443629614621e-02 0.0000000000000000e+00  -3.2717883414984356e-02 5.7470523894133672e-02 0.0000000000000000e+00  -6.0701382310705883e-02 1.6512337568579540e-02 0.0000000000000000e+00  -5.7220516281105895e-02 -3.4454485336827982e-02 0.0000000000000000e+00  -1.6284531787032590e-02 -6.0805504355135639e-02 0.0000000000000000e+00  3.2727968971575552e-02 -5.7104324224243067e-02 0.0000000000000000e+00  3.1271330922788200e-02 5.5956261541188178e-03 -3.2949785335878910e-02  1.0827795539420223e-02 2.1731196939833990e-02 -5.2812506444955040e-02  6.0362962560268171e-02 3.1349094220487509e-03 -3.1216346568976754e-02  3.9462885100100972e-02 1.8925591787685346e-02 -5.9130696873488486e-02  1.9250190563300861e-02 2.6129662395886700e-02 -3.0051297678927745e-02  -8.3303073689320797e-03 2.2120105345050326e-02 -5.0205861166670279e-02  -6.9444336063403493e-03 3.2137099270890541e-02 -3.1983894866012941e-02  -2.4605286242377979e-02 1.0213170182033099e-02 -5.1918369614201043e-02  -2.7964274755661163e-02 1.7038024446212875e-02 -2.8757894354231126e-02  -2.3545491329782540e-02 -8.6877668041994063e-03 -5.2916790060370318e-02  -3.2302589898302494e-02 -7.6969757725701190e-03 -3.1234396954167090e-02  -1.0099545180327792e-02 -2.0983347694220517e-02 -5.2699362407042954e-02  -1.6011957371528360e-02 -2.7989527308133540e-02 -2.8827442264807216e-02  9.7234843554456756e-03 -2.2665242907583306e-02 -4.9899802470613895e-02  6.7597878715769961e-03 -3.3354635493469460e-02 -3.1959609884979610e-02  2.4594932846943900e-02 -1.0184628262184898e-02 -5.2243232201253931e-02  2.6475821090231052e-02 -1.8981984084679607e-02 -3.0354701828663507e-02  2.3558005071045857e-02 7.6569205006803195e-03 -5.2352649330635811e-02  4.2318250682877818e-02 4.5800382504112121e-02 -3.2150992878927184e-02  1.5087640646685914e-02 4.0763758037122670e-02 -6.0112176633588116e-02  -2.8830484068690845e-03 6.1279683201501033e-02 -3.1489919890062515e-02  -1.8051249466813805e-02 4.0139263429113482e-02 -5.9528743681200105e-02  -4.4411765707310327e-02 4.0711624698518890e-02 -3.1326892828472105e-02  -4.0373181764196478e-02 1.4101220677327978e-02 -5.9065378272497158e-02  -6.1486437849862297e-02 -2.7172296145022050e-03 -3.1752571427769716e-02  -3.9504179749247442e-02 -1.8958252351432083e-02 -5.9501051351210588e-02  -4.1572637600206089e-02 -4.5115650368396876e-02 -3.1990240832233882e-02  -1.4715745574316822e-02 -3.9910549680149128e-02 -6.0404721922445739e-02  2.6533625187930916e-03 -6.2502307718672642e-02 -3.1936087444697336e-02  1.8182948536743310e-02 -4.0709031427340538e-02 -6.0387641983092231e-02  4.5293303729537583e-02 -4.1664607533628703e-02 -3.2039233721384668e-02  3.9993836477047899e-02 -1.4505052342848752e-02 -6.0433379552106155e-02  -5.5375931132798144e-02 -4.5012505778026677e-03 0.0000000000000000e+00  -4.0912380308576433e-02 3.4875163914955647e-02 0.0000000000000000e+00  -4.7038304360302995e-03 5.3748306707211389e-02 0.0000000000000000e+00  3.5648522896077964e-02 4.2028705317727531e-02 0.0000000000000000e+00  5.4592329687136842e-02 4.4286352985693318e-03 0.0000000000000000e+00  4.1606365364145144e-02 -3.5354762037194266e-02 0.0000000000000000e+00  4.5377315248510738e-03 -5.3187505692120482e-02 0.0000000000000000e+00  -3.5196931691994393e-02 -4.0937806311040520e-02 0.0000000000000000e+00  </DataArray> 
</PointData> 
</Piece>
</UnstructuredGrid>
</VTKFile>