<?xml version="1.0"?>
<VTKFile type="UnstructuredGrid"  version="0.1"  >
<UnstructuredGrid>
<Piece  NumberOfPoints="58" NumberOfCells="148">
<Points>
<DataArray  type="Float64"  NumberOfComponents="3"  format="ascii">0.4023249999999999 0 0  0 0 -0.8046499999999999  0.266805 0 0  0 0 -0.6691299999999999  0.2844867357408777 0.2844867357408777 0  2.775557561562891e-17 0.4023249999999999 0  -0.2844867357408777 0.2844867357408777 0  -0.4023249999999999 2.775557561562891e-17 0  -0.2844867357408777 -0.2844867357408777 0  -2.775557561562891e-17 -0.4023249999999999 0  0.2844867357408777 -0.2844867357408777 0  0.1886596247544768 0.1886596247544768 0  2.775557561562891e-17 0.266805 0  -0.1886596247544767 0.1886596247544768 0  -0.266805 8.326672684688674e-17 0  -0.1886596247544768 -0.1886596247544767 0  -1.387778780781446e-16 -0.266805 0  0.1886596247544766 -0.1886596247544769 0  0.3686082568662342 0 -0.3224491190562394  0.2536108874396318 0 -0.6246500569025265  0.2466044134321161 0 -0.2554056152626437  0.1766587270840894 0 -0.5014405794480644  0.2606453980314651 0.2606453980314651 -0.3224491190562516  0.1793299782912967 0.1793299782912967 -0.6246500569025382  2.542952674080888e-17 0.3686082568662342 -0.3224491190562394  1.749609435972772e-17 0.2536108874396318 -0.6246500569025265  -0.2606453980314651 0.2606453980314651 -0.3224491190562516  -0.1793299782912967 0.1793299782912967 -0.6246500569025382  -0.3686082568662342 2.542952674080888e-17 -0.3224491190562394  -0.2536108874396318 1.749609435972772e-17 -0.6246500569025265  -0.2606453980314651 -0.2606453980314651 -0.3224491190562516  -0.1793299782912967 -0.1793299782912967 -0.6246500569025382  -2.542952674080888e-17 -0.3686082568662342 -0.3224491190562394  -1.749609435972772e-17 -0.2536108874396318 -0.6246500569025265  0.2606453980314651 -0.2606453980314651 -0.3224491190562516  0.1793299782912967 -0.1793299782912967 -0.6246500569025382  0.1743756530083801 0.17437565300838 -0.2554056152626451  0.1249165838769436 0.1249165838769436 -0.5014405794480633  2.565411984094344e-17 0.2466044134321161 -0.2554056152626437  1.837770902997769e-17 0.1766587270840894 -0.5014405794480644  -0.1743756530083802 0.1743756530083803 -0.2554056152626436  -0.1249165838769431 0.1249165838769432 -0.5014405794480646  -0.2466044134321161 7.696235952283031e-17 -0.2554056152626437  -0.1766587270840894 5.513312708993305e-17 -0.5014405794480644  -0.1743756530083802 -0.17437565300838 -0.2554056152626445  -0.1249165838769429 -0.1249165838769428 -0.5014405794480657  -1.282705992047172e-16 -0.2466044134321161 -0.2554056152626437  -9.188854514988842e-17 -0.1766587270840894 -0.5014405794480644  0.1743756530083804 -0.1743756530083806 -0.2554056152626407  0.1249165838769432 -0.1249165838769434 -0.5014405794480641  -0.2855690901238386 -0.1182865901238386 0  -0.2855690901238385 0.1182865901238386 0  -0.1182865901238386 0.2855690901238386 -0  0.1182865901238386 0.2855690901238386 0  0.2855690901238386 0.1182865901238386 0  0.2855690901238386 -0.1182865901238386 0  0.1182865901238385 -0.2855690901238386 0  -0.1182865901238387 -0.2855690901238386 0  </DataArray>
</Points>
<Cells>
<DataArray  type="UInt32"  Name="connectivity"  format="ascii">5 6 24 52  8 9 32 57  7 8 28 50  9 10 32 56  0 4 18 54  6 7 28 51  0 10 18 55  4 5 24 53  10 18 34 55  4 18 22 54  4 22 24 53  8 28 30 50  30 42 44 50  22 23 37 39  21 22 23 37  30 31 43 45  30 31 45 47  20 34 48 55  22 36 38 53  20 22 36 54  28 40 42 51  21 34 35 49  33 34 47 49  16 17 46 56  15 16 46 57  25 26 39 41  22 24 38 53  18 20 34 55  18 20 22 54  28 30 42 50  29 30 31 43  22 23 25 39  19 21 22 23  30 31 33 47  28 29 41 43  15 42 44 50  9 32 46 57  0 18 20 55  5 24 38 52  7 28 42 51  5 24 38 53  0 18 20 54  9 32 46 56  7 28 42 50  33 34 35 49  9 16 46 57  9 16 46 56  12 36 38 53  2 11 20 54  11 12 36 53  14 15 42 50  14 40 42 51  13 14 40 51  12 13 38 52  2 17 48 55  11 20 36 54  2 20 48 55  25 26 27 41  8 30 44 50  10 34 48 55  4 22 36 54  4 22 36 53  27 28 29 41  18 21 34 35  26 27 28 41  18 19 21 35  28 29 30 43  24 25 26 39  22 24 25 39  30 32 33 47  18 19 21 22  32 33 34 47  0 2 20 54  0 2 20 55  7 14 42 50  7 14 42 51  5 12 38 52  5 12 38 53  30 43 44 45  30 44 45 47  22 36 37 39  21 22 36 37  34 47 48 49  21 34 48 49  1 3 31 33  1 3 23 25  1 3 19 23  1 3 29 31  8 15 44 50  30 42 43 44  26 39 40 41  22 36 38 39  20 21 22 36  20 21 34 48  4 11 36 54  4 11 36 53  6 13 40 51  10 17 48 55  3 31 43 45  3 23 37 39  3 31 45 47  3 21 23 37  28 41 42 43  32 44 46 47  1 3 27 29  1 3 33 35  1 3 19 35  1 3 25 27  32 46 47 48  28 40 41 42  24 38 39 40  30 32 44 47  3 33 47 49  3 21 35 49  26 28 40 41  28 30 42 43  24 26 39 40  22 24 38 39  32 34 47 48  18 20 21 22  18 20 21 34  3 29 41 43  3 25 39 41  3 29 31 43  3 23 25 39  3 31 33 47  3 19 21 23  3 33 35 49  3 27 29 41  3 25 27 41  3 19 21 35  6 24 26 40  10 32 34 48  8 30 32 44  6 26 28 40  6 28 40 51  8 15 44 46  8 15 46 57  8 32 44 46  8 32 46 57  10 17 46 56  10 17 46 48  10 32 46 56  10 32 46 48  6 13 38 52  6 13 38 40  6 24 38 52  6 24 38 40  </DataArray>
<DataArray  type="UInt32"  Name="offsets"  format="ascii">4 8 12 16 20 24 28 32 36 40 44 48 52 56 60 64 68 72 76 80 84 88 92 96 100 104 108 112 116 120 124 128 132 136 140 144 148 152 156 160 164 168 172 176 180 184 188 192 196 200 204 208 212 216 220 224 228 232 236 240 244 248 252 256 260 264 268 272 276 280 284 288 292 296 300 304 308 312 316 320 324 328 332 336 340 344 348 352 356 360 364 368 372 376 380 384 388 392 396 400 404 408 412 416 420 424 428 432 436 440 444 448 452 456 460 464 468 472 476 480 484 488 492 496 500 504 508 512 516 520 524 528 532 536 540 544 548 552 556 560 564 568 572 576 580 584 588 592 </DataArray>
<DataArray  type="UInt8"  Name="types"  format="ascii">10 10 10 10 10 10 10 10 10 10 10 10 10 10 10 10 10 10 10 10 10 10 10 10 10 10 10 10 10 10 10 10 10 10 10 10 10 10 10 10 10 10 10 10 10 10 10 10 10 10 10 10 10 10 10 10 10 10 10 10 10 10 10 10 10 10 10 10 10 10 10 10 10 10 10 10 10 10 10 10 10 10 10 10 10 10 10 10 10 10 10 10 10 10 10 10 10 10 10 10 10 10 10 10 10 10 10 10 10 10 10 10 10 10 10 10 10 10 10 10 10 10 10 10 10 10 10 10 10 10 10 10 10 10 10 10 10 10 10 10 10 10 10 10 10 10 10 10 </DataArray>
</Cells>
<PointData  Vectors="f_37-0"> 
<DataArray  type="Float64"  Name="f_37-0"  NumberOfComponents="3" format="ascii">3.1155999329414531e-02 -1.6490625126002540e-02 0.0000000000000000e+00  -4.7580903831745283e-04 3.7029766067649589e-04 -4.0641239366426260e-02  5.3208966450663170e-02 -1.4615308207194347e-02 0.0000000000000000e+00  -4.9220265645459006e-05 -9.7312004255942677e-05 -5.3635101153432049e-02  3.6665863817575035e-02 1.2095002326287694e-02 0.0000000000000000e+00  1.6515164693847163e-02 3.1595840544146998e-02 0.0000000000000000e+00  -1.1780294929649486e-02 3.6074966361701849e-02 0.0000000000000000e+00  -3.0745947964978034e-02 1.7324737606568746e-02 0.0000000000000000e+00  -3.6493289922972662e-02 -1.2419856671771892e-02 0.0000000000000000e+00  -1.7133435388931324e-02 -2.9665004293939062e-02 0.0000000000000000e+00  1.1075449849612567e-02 -3.5840656076528879e-02 0.0000000000000000e+00  4.9452458369925775e-02 2.8796282035993472e-02 0.0000000000000000e+00  1.4931509247024962e-02 5.3356489890573337e-02 0.0000000000000000e+00  -2.8778236141911957e-02 5.0449130290009539e-02 0.0000000000000000e+00  -5.3189646006713262e-02 1.4438781063584549e-02 0.0000000000000000e+00  -5.0113485195687986e-02 -3.0378789974661431e-02 0.0000000000000000e+00  -1.4192988277482371e-02 -5.3319879794298232e-02 0.0000000000000000e+00  2.8738422096579293e-02 -5.0068093765330772e-02 0.0000000000000000e+00  2.7518860942822188e-02 4.7485614791983686e-03 -2.7247869009765575e-02  9.0006656264401182e-03 1.8896000378390086e-02 -4.3328826222410841e-02  5.2704033986059259e-02 2.5375635712990103e-03 -2.5697241985784963e-02  3.3907160335848015e-02 1.5930971657393891e-02 -4.8147439488222706e-02  1.7046888546884062e-02 2.3001908363102983e-02 -2.5205246959795504e-02  -7.2208287507210820e-03 1.9379151115776941e-02 -4.2062504696175507e-02  -5.6771488075501820e-03 2.8168756758038274e-02 -2.6500064706808841e-02  -2.1071653638484174e-02 8.3996047168028980e-03 -4.2893635740097788e-02  -2.4220330029709684e-02 1.4956237926524939e-02 -2.4079616917736281e-02  -2.0033410765118349e-02 -7.6655974298701877e-03 -4.3275869918882180e-02  -2.8514483737980857e-02 -6.2619437329879835e-03 -2.6003639942991638e-02  -8.5156887833026818e-03 -1.8217105579469910e-02 -4.3424441687409998e-02  -1.4551390322485449e-02 -2.4241302855634132e-02 -2.4173486087059267e-02  8.1519718767521093e-03 -1.9719957894019879e-02 -4.1811846556675560e-02  5.5873755265272405e-03 -2.8979502700518325e-02 -2.6477456912020116e-02  2.1220479893267648e-02 -8.5065915393694388e-03 -4.3336248379603655e-02  2.3156687246584467e-02 -1.6556470394183429e-02 -2.5394440579421338e-02  2.0042130939103828e-02 6.8740828784810146e-03 -4.3280841248374169e-02  3.7021398620371126e-02 3.9778155983815233e-02 -2.6537500946210570e-02  1.3374303756572836e-02 3.4917074880898014e-02 -4.9028377870565257e-02  -2.2844821837508787e-03 5.3491120448437894e-02 -2.5947082024713686e-02  -1.5079636974932628e-02 3.4464624150118854e-02 -4.8553582821931743e-02  -3.8532210747634126e-02 3.5587013612686250e-02 -2.5799525215101444e-02  -3.4469531730472507e-02 1.2291247563764610e-02 -4.8161968768772039e-02  -5.3697594306830722e-02 -2.1464228218693597e-03 -2.6250745920018945e-02  -3.4048446996513188e-02 -1.6021087889096411e-02 -4.8490444139391672e-02  -3.6523895878427498e-02 -3.9177770394749886e-02 -2.6441540993684301e-02  -1.3044115885628243e-02 -3.4236772905796520e-02 -4.9422121891479688e-02  2.0256358156577636e-03 -5.4548735002832784e-02 -2.6415346994738669e-02  1.5236257308701118e-02 -3.4908291479288457e-02 -4.9242010278079645e-02  3.9324267513864621e-02 -3.6370192045370384e-02 -2.6472522169930141e-02  3.4266177422786939e-02 -1.2757450801980368e-02 -4.9415174099595303e-02  -4.8514686220051582e-02 -4.0912518562503664e-03 0.0000000000000000e+00  -3.6026786682415400e-02 3.0486944182255456e-02 0.0000000000000000e+00  -4.2801416650459076e-03 4.7303467619151177e-02 0.0000000000000000e+00  3.1105089151451455e-02 3.7030724802422775e-02 0.0000000000000000e+00  4.7822337533233270e-02 4.0835150298402234e-03 0.0000000000000000e+00  3.6603705999220755e-02 -3.0822987293977783e-02 0.0000000000000000e+00  4.1066745481264360e-03 -4.6712396376747053e-02 0.0000000000000000e+00  -3.0806532866301015e-02 -3.6125725863953732e-02 0.0000000000000000e+00  </DataArray> 
</PointData> 
</Piece>
</UnstructuredGrid>
</VTKFile>