<?xml version="1.0"?>
<VTKFile type="UnstructuredGrid"  version="0.1"  >
<UnstructuredGrid>
<Piece  NumberOfPoints="58" NumberOfCells="148">
<Points>
<DataArray  type="Float64"  NumberOfComponents="3"  format="ascii">0.4023249999999999 0 0  0 0 -0.8046499999999999  0.266805 0 0  0 0 -0.6691299999999999  0.2844867357408777 0.2844867357408777 0  2.775557561562891e-17 0.4023249999999999 0  -0.2844867357408777 0.2844867357408777 0  -0.4023249999999999 2.775557561562891e-17 0  -0.2844867357408777 -0.2844867357408777 0  -2.775557561562891e-17 -0.4023249999999999 0  0.2844867357408777 -0.2844867357408777 0  0.1886596247544768 0.1886596247544768 0  2.775557561562891e-17 0.266805 0  -0.1886596247544767 0.1886596247544768 0  -0.266805 8.326672684688674e-17 0  -0.1886596247544768 -0.1886596247544767 0  -1.387778780781446e-16 -0.266805 0  0.1886596247544766 -0.1886596247544769 0  0.3686082568662342 0 -0.3224491190562394  0.2536108874396318 0 -0.6246500569025265  0.2466044134321161 0 -0.2554056152626437  0.1766587270840894 0 -0.5014405794480644  0.2606453980314651 0.2606453980314651 -0.3224491190562516  0.1793299782912967 0.1793299782912967 -0.6246500569025382  2.542952674080888e-17 0.3686082568662342 -0.3224491190562394  1.749609435972772e-17 0.2536108874396318 -0.6246500569025265  -0.2606453980314651 0.2606453980314651 -0.3224491190562516  -0.1793299782912967 0.1793299782912967 -0.6246500569025382  -0.3686082568662342 2.542952674080888e-17 -0.3224491190562394  -0.2536108874396318 1.749609435972772e-17 -0.6246500569025265  -0.2606453980314651 -0.2606453980314651 -0.3224491190562516  -0.1793299782912967 -0.1793299782912967 -0.6246500569025382  -2.542952674080888e-17 -0.3686082568662342 -0.3224491190562394  -1.749609435972772e-17 -0.2536108874396318 -0.6246500569025265  0.2606453980314651 -0.2606453980314651 -0.3224491190562516  0.1793299782912967 -0.1793299782912967 -0.6246500569025382  0.1743756530083801 0.17437565300838 -0.2554056152626451  0.1249165838769436 0.1249165838769436 -0.5014405794480633  2.565411984094344e-17 0.2466044134321161 -0.2554056152626437  1.837770902997769e-17 0.1766587270840894 -0.5014405794480644  -0.1743756530083802 0.1743756530083803 -0.2554056152626436  -0.1249165838769431 0.1249165838769432 -0.5014405794480646  -0.2466044134321161 7.696235952283031e-17 -0.2554056152626437  -0.1766587270840894 5.513312708993305e-17 -0.5014405794480644  -0.1743756530083802 -0.17437565300838 -0.2554056152626445  -0.1249165838769429 -0.1249165838769428 -0.5014405794480657  -1.282705992047172e-16 -0.2466044134321161 -0.2554056152626437  -9.188854514988842e-17 -0.1766587270840894 -0.5014405794480644  0.1743756530083804 -0.1743756530083806 -0.2554056152626407  0.1249165838769432 -0.1249165838769434 -0.5014405794480641  -0.2855690901238386 -0.1182865901238386 0  -0.2855690901238385 0.1182865901238386 0  -0.1182865901238386 0.2855690901238386 -0  0.1182865901238386 0.2855690901238386 0  0.2855690901238386 0.1182865901238386 0  0.2855690901238386 -0.1182865901238386 0  0.1182865901238385 -0.2855690901238386 0  -0.1182865901238387 -0.2855690901238386 0  </DataArray>
</Points>
<Cells>
<DataArray  type="UInt32"  Name="connectivity"  format="ascii">5 6 24 52  8 9 32 57  7 8 28 50  9 10 32 56  0 4 18 54  6 7 28 51  0 10 18 55  4 5 24 53  10 18 34 55  4 18 22 54  4 22 24 53  8 28 30 50  30 42 44 50  22 23 37 39  21 22 23 37  30 31 43 45  30 31 45 47  20 34 48 55  22 36 38 53  20 22 36 54  28 40 42 51  21 34 35 49  33 34 47 49  16 17 46 56  15 16 46 57  25 26 39 41  22 24 38 53  18 20 34 55  18 20 22 54  28 30 42 50  29 30 31 43  22 23 25 39  19 21 22 23  30 31 33 47  28 29 41 43  15 42 44 50  9 32 46 57  0 18 20 55  5 24 38 52  7 28 42 51  5 24 38 53  0 18 20 54  9 32 46 56  7 28 42 50  33 34 35 49  9 16 46 57  9 16 46 56  12 36 38 53  2 11 20 54  11 12 36 53  14 15 42 50  14 40 42 51  13 14 40 51  12 13 38 52  2 17 48 55  11 20 36 54  2 20 48 55  25 26 27 41  8 30 44 50  10 34 48 55  4 22 36 54  4 22 36 53  27 28 29 41  18 21 34 35  26 27 28 41  18 19 21 35  28 29 30 43  24 25 26 39  22 24 25 39  30 32 33 47  18 19 21 22  32 33 34 47  0 2 20 54  0 2 20 55  7 14 42 50  7 14 42 51  5 12 38 52  5 12 38 53  30 43 44 45  30 44 45 47  22 36 37 39  21 22 36 37  34 47 48 49  21 34 48 49  1 3 31 33  1 3 23 25  1 3 19 23  1 3 29 31  8 15 44 50  30 42 43 44  26 39 40 41  22 36 38 39  20 21 22 36  20 21 34 48  4 11 36 54  4 11 36 53  6 13 40 51  10 17 48 55  3 31 43 45  3 23 37 39  3 31 45 47  3 21 23 37  28 41 42 43  32 44 46 47  1 3 27 29  1 3 33 35  1 3 19 35  1 3 25 27  32 46 47 48  28 40 41 42  24 38 39 40  30 32 44 47  3 33 47 49  3 21 35 49  26 28 40 41  28 30 42 43  24 26 39 40  22 24 38 39  32 34 47 48  18 20 21 22  18 20 21 34  3 29 41 43  3 25 39 41  3 29 31 43  3 23 25 39  3 31 33 47  3 19 21 23  3 33 35 49  3 27 29 41  3 25 27 41  3 19 21 35  6 24 26 40  10 32 34 48  8 30 32 44  6 26 28 40  6 28 40 51  8 15 44 46  8 15 46 57  8 32 44 46  8 32 46 57  10 17 46 56  10 17 46 48  10 32 46 56  10 32 46 48  6 13 38 52  6 13 38 40  6 24 38 52  6 24 38 40  </DataArray>
<DataArray  type="UInt32"  Name="offsets"  format="ascii">4 8 12 16 20 24 28 32 36 40 44 48 52 56 60 64 68 72 76 80 84 88 92 96 100 104 108 112 116 120 124 128 132 136 140 144 148 152 156 160 164 168 172 176 180 184 188 192 196 200 204 208 212 216 220 224 228 232 236 240 244 248 252 256 260 264 268 272 276 280 284 288 292 296 300 304 308 312 316 320 324 328 332 336 340 344 348 352 356 360 364 368 372 376 380 384 388 392 396 400 404 408 412 416 420 424 428 432 436 440 444 448 452 456 460 464 468 472 476 480 484 488 492 496 500 504 508 512 516 520 524 528 532 536 540 544 548 552 556 560 564 568 572 576 580 584 588 592 </DataArray>
<DataArray  type="UInt8"  Name="types"  format="ascii">10 10 10 10 10 10 10 10 10 10 10 10 10 10 10 10 10 10 10 10 10 10 10 10 10 10 10 10 10 10 10 10 10 10 10 10 10 10 10 10 10 10 10 10 10 10 10 10 10 10 10 10 10 10 10 10 10 10 10 10 10 10 10 10 10 10 10 10 10 10 10 10 10 10 10 10 10 10 10 10 10 10 10 10 10 10 10 10 10 10 10 10 10 10 10 10 10 10 10 10 10 10 10 10 10 10 10 10 10 10 10 10 10 10 10 10 10 10 10 10 10 10 10 10 10 10 10 10 10 10 10 10 10 10 10 10 10 10 10 10 10 10 10 10 10 10 10 10 </DataArray>
</Cells>
<PointData  Vectors="f_37-0"> 
<DataArray  type="Float64"  Name="f_37-0"  NumberOfComponents="3" format="ascii">1.3715433799487043e-02 -6.9543935725093929e-03 0.0000000000000000e+00  -1.1202987547011225e-04 8.4866412122368049e-05 -9.6216033581298099e-03  2.2353566960396174e-02 -6.0099888757353635e-03 0.0000000000000000e+00  3.7840164933671820e-05 4.3499809248584896e-05 -1.1720152746886332e-02  1.6191275073324317e-02 5.9205881040672271e-03 0.0000000000000000e+00  7.1809377585368081e-03 1.3961805682687832e-02 0.0000000000000000e+00  -5.6157780150082942e-03 1.6062108360845477e-02 0.0000000000000000e+00  -1.3696929482406675e-02 7.1941434333741778e-03 0.0000000000000000e+00  -1.6151859047242329e-02 -6.0370736710430159e-03 0.0000000000000000e+00  -7.3049390063182748e-03 -1.3186925526189813e-02 0.0000000000000000e+00  5.2123558535927062e-03 -1.5848706480274817e-02 0.0000000000000000e+00  2.1207015763410962e-02 1.2705447998410880e-02 0.0000000000000000e+00  6.1950601662809765e-03 2.2571511381180309e-02 0.0000000000000000e+00  -1.2393011913833985e-02 2.1700256878643503e-02 0.0000000000000000e+00  -2.2498812869075912e-02 6.0353300768429064e-03 0.0000000000000000e+00  -2.1190357596548717e-02 -1.3409961526458434e-02 0.0000000000000000e+00  -5.7290868700095527e-03 -2.2637150196645472e-02 0.0000000000000000e+00  1.2344366314303768e-02 -2.1412419634357679e-02 0.0000000000000000e+00  1.1551751603355517e-02 1.7727602003247446e-03 -8.3228723192833899e-03  2.7292467441106753e-03 7.0107722699172753e-03 -1.1760597407170548e-02  2.1676186181338902e-02 8.4681585870043151e-04 -7.3472101094822747e-03  1.2272233403095035e-02 5.4319278065905752e-03 -1.2312746540349750e-02  7.4087732454869671e-03 9.6177704056029430e-03 -8.0018362726488098e-03  -2.9395165110413686e-03 7.0101043151799408e-03 -1.1854142646465112e-02  -1.8727723100408667e-03 1.1750428769561113e-02 -8.1158032803145333e-03  -7.6398998043754034e-03 2.3637705728094299e-03 -1.1758012237919849e-02  -9.6144955381132109e-03 6.4604458085391961e-03 -7.5202265897813146e-03  -6.8424479114951916e-03 -3.1219302075397061e-03 -1.1602174270303573e-02  -1.2108603264633633e-02 -2.0615664126606586e-03 -8.0551290890113654e-03  -2.5627661114108265e-03 -6.7507027861718255e-03 -1.1858917095035519e-02  -6.6317105147485683e-03 -9.7515205295200507e-03 -7.6894920854897481e-03  3.0676718915227928e-03 -6.9968614539751431e-03 -1.1845839015792873e-02  1.8224471777716744e-03 -1.1863566342218071e-02 -8.0610650917933482e-03  7.7919752804545888e-03 -2.4940897274931054e-03 -1.2085924855951429e-02  9.4170282538100208e-03 -6.9640860669683106e-03 -7.9871478212506179e-03  6.8818822066828685e-03 2.9433630992564096e-03 -1.1916191232401792e-02  1.5352917366484385e-02 1.6192686392369031e-02 -7.6839074962797268e-03  5.3732323614169054e-03 1.2582793245329665e-02 -1.2771767716199223e-02  -7.2031452776828817e-04 2.1978059073215605e-02 -7.4486835405948408e-03  -4.9681283453287643e-03 1.2507373158067270e-02 -1.2535001544341078e-02  -1.5453666675722932e-02 1.4650871249632061e-02 -7.3494025921046402e-03  -1.2265413825397753e-02 4.5933928724090538e-03 -1.2422320417457370e-02  -2.2115063823744750e-02 -5.8810796710523697e-04 -7.6912389780108220e-03  -1.2481286155998699e-02 -5.4362346716288800e-03 -1.2493635786454871e-02  -1.5362764870647987e-02 -1.5912981093601140e-02 -7.7028993583681546e-03  -5.2296151733343199e-03 -1.2409199223175177e-02 -1.3095095227031632e-02  4.2060477413009817e-04 -2.2465680541094511e-02 -7.7627720296270979e-03  5.1060561029642555e-03 -1.2670410224149803e-02 -1.2812080024350615e-02  1.5857822023523958e-02 -1.4891547756103841e-02 -7.7095169537134758e-03  1.2346503040861130e-02 -5.0243705002218043e-03 -1.3061797108874800e-02  -2.0650770480895128e-02 -2.1438930188141816e-03 0.0000000000000000e+00  -1.5747913073051713e-02 1.2737053408595119e-02 0.0000000000000000e+00  -2.2097027995378869e-03 2.0511049768678818e-02 0.0000000000000000e+00  1.2941252675467901e-02 1.6155992732051573e-02 0.0000000000000000e+00  2.0368138856820851e-02 2.2597085399522604e-03 0.0000000000000000e+00  1.5889386310813252e-02 -1.2754428264079954e-02 0.0000000000000000e+00  2.1176292130888818e-03 -2.0070358670742545e-02 0.0000000000000000e+00  -1.2927817058314500e-02 -1.5797770354718667e-02 0.0000000000000000e+00  </DataArray> 
</PointData> 
</Piece>
</UnstructuredGrid>
</VTKFile>