<?xml version="1.0"?>
<VTKFile type="UnstructuredGrid"  version="0.1"  >
<UnstructuredGrid>
<Piece  NumberOfPoints="58" NumberOfCells="148">
<Points>
<DataArray  type="Float64"  NumberOfComponents="3"  format="ascii">0.4023249999999999 0 0  0 0 -0.8046499999999999  0.266805 0 0  0 0 -0.6691299999999999  0.2844867357408777 0.2844867357408777 0  2.775557561562891e-17 0.4023249999999999 0  -0.2844867357408777 0.2844867357408777 0  -0.4023249999999999 2.775557561562891e-17 0  -0.2844867357408777 -0.2844867357408777 0  -2.775557561562891e-17 -0.4023249999999999 0  0.2844867357408777 -0.2844867357408777 0  0.1886596247544768 0.1886596247544768 0  2.775557561562891e-17 0.266805 0  -0.1886596247544767 0.1886596247544768 0  -0.266805 8.326672684688674e-17 0  -0.1886596247544768 -0.1886596247544767 0  -1.387778780781446e-16 -0.266805 0  0.1886596247544766 -0.1886596247544769 0  0.3686082568662342 0 -0.3224491190562394  0.2536108874396318 0 -0.6246500569025265  0.2466044134321161 0 -0.2554056152626437  0.1766587270840894 0 -0.5014405794480644  0.2606453980314651 0.2606453980314651 -0.3224491190562516  0.1793299782912967 0.1793299782912967 -0.6246500569025382  2.542952674080888e-17 0.3686082568662342 -0.3224491190562394  1.749609435972772e-17 0.2536108874396318 -0.6246500569025265  -0.2606453980314651 0.2606453980314651 -0.3224491190562516  -0.1793299782912967 0.1793299782912967 -0.6246500569025382  -0.3686082568662342 2.542952674080888e-17 -0.3224491190562394  -0.2536108874396318 1.749609435972772e-17 -0.6246500569025265  -0.2606453980314651 -0.2606453980314651 -0.3224491190562516  -0.1793299782912967 -0.1793299782912967 -0.6246500569025382  -2.542952674080888e-17 -0.3686082568662342 -0.3224491190562394  -1.749609435972772e-17 -0.2536108874396318 -0.6246500569025265  0.2606453980314651 -0.2606453980314651 -0.3224491190562516  0.1793299782912967 -0.1793299782912967 -0.6246500569025382  0.1743756530083801 0.17437565300838 -0.2554056152626451  0.1249165838769436 0.1249165838769436 -0.5014405794480633  2.565411984094344e-17 0.2466044134321161 -0.2554056152626437  1.837770902997769e-17 0.1766587270840894 -0.5014405794480644  -0.1743756530083802 0.1743756530083803 -0.2554056152626436  -0.1249165838769431 0.1249165838769432 -0.5014405794480646  -0.2466044134321161 7.696235952283031e-17 -0.2554056152626437  -0.1766587270840894 5.513312708993305e-17 -0.5014405794480644  -0.1743756530083802 -0.17437565300838 -0.2554056152626445  -0.1249165838769429 -0.1249165838769428 -0.5014405794480657  -1.282705992047172e-16 -0.2466044134321161 -0.2554056152626437  -9.188854514988842e-17 -0.1766587270840894 -0.5014405794480644  0.1743756530083804 -0.1743756530083806 -0.2554056152626407  0.1249165838769432 -0.1249165838769434 -0.5014405794480641  -0.2855690901238386 -0.1182865901238386 0  -0.2855690901238385 0.1182865901238386 0  -0.1182865901238386 0.2855690901238386 -0  0.1182865901238386 0.2855690901238386 0  0.2855690901238386 0.1182865901238386 0  0.2855690901238386 -0.1182865901238386 0  0.1182865901238385 -0.2855690901238386 0  -0.1182865901238387 -0.2855690901238386 0  </DataArray>
</Points>
<Cells>
<DataArray  type="UInt32"  Name="connectivity"  format="ascii">5 6 24 52  8 9 32 57  7 8 28 50  9 10 32 56  0 4 18 54  6 7 28 51  0 10 18 55  4 5 24 53  10 18 34 55  4 18 22 54  4 22 24 53  8 28 30 50  30 42 44 50  22 23 37 39  21 22 23 37  30 31 43 45  30 31 45 47  20 34 48 55  22 36 38 53  20 22 36 54  28 40 42 51  21 34 35 49  33 34 47 49  16 17 46 56  15 16 46 57  25 26 39 41  22 24 38 53  18 20 34 55  18 20 22 54  28 30 42 50  29 30 31 43  22 23 25 39  19 21 22 23  30 31 33 47  28 29 41 43  15 42 44 50  9 32 46 57  0 18 20 55  5 24 38 52  7 28 42 51  5 24 38 53  0 18 20 54  9 32 46 56  7 28 42 50  33 34 35 49  9 16 46 57  9 16 46 56  12 36 38 53  2 11 20 54  11 12 36 53  14 15 42 50  14 40 42 51  13 14 40 51  12 13 38 52  2 17 48 55  11 20 36 54  2 20 48 55  25 26 27 41  8 30 44 50  10 34 48 55  4 22 36 54  4 22 36 53  27 28 29 41  18 21 34 35  26 27 28 41  18 19 21 35  28 29 30 43  24 25 26 39  22 24 25 39  30 32 33 47  18 19 21 22  32 33 34 47  0 2 20 54  0 2 20 55  7 14 42 50  7 14 42 51  5 12 38 52  5 12 38 53  30 43 44 45  30 44 45 47  22 36 37 39  21 22 36 37  34 47 48 49  21 34 48 49  1 3 31 33  1 3 23 25  1 3 19 23  1 3 29 31  8 15 44 50  30 42 43 44  26 39 40 41  22 36 38 39  20 21 22 36  20 21 34 48  4 11 36 54  4 11 36 53  6 13 40 51  10 17 48 55  3 31 43 45  3 23 37 39  3 31 45 47  3 21 23 37  28 41 42 43  32 44 46 47  1 3 27 29  1 3 33 35  1 3 19 35  1 3 25 27  32 46 47 48  28 40 41 42  24 38 39 40  30 32 44 47  3 33 47 49  3 21 35 49  26 28 40 41  28 30 42 43  24 26 39 40  22 24 38 39  32 34 47 48  18 20 21 22  18 20 21 34  3 29 41 43  3 25 39 41  3 29 31 43  3 23 25 39  3 31 33 47  3 19 21 23  3 33 35 49  3 27 29 41  3 25 27 41  3 19 21 35  6 24 26 40  10 32 34 48  8 30 32 44  6 26 28 40  6 28 40 51  8 15 44 46  8 15 46 57  8 32 44 46  8 32 46 57  10 17 46 56  10 17 46 48  10 32 46 56  10 32 46 48  6 13 38 52  6 13 38 40  6 24 38 52  6 24 38 40  </DataArray>
<DataArray  type="UInt32"  Name="offsets"  format="ascii">4 8 12 16 20 24 28 32 36 40 44 48 52 56 60 64 68 72 76 80 84 88 92 96 100 104 108 112 116 120 124 128 132 136 140 144 148 152 156 160 164 168 172 176 180 184 188 192 196 200 204 208 212 216 220 224 228 232 236 240 244 248 252 256 260 264 268 272 276 280 284 288 292 296 300 304 308 312 316 320 324 328 332 336 340 344 348 352 356 360 364 368 372 376 380 384 388 392 396 400 404 408 412 416 420 424 428 432 436 440 444 448 452 456 460 464 468 472 476 480 484 488 492 496 500 504 508 512 516 520 524 528 532 536 540 544 548 552 556 560 564 568 572 576 580 584 588 592 </DataArray>
<DataArray  type="UInt8"  Name="types"  format="ascii">10 10 10 10 10 10 10 10 10 10 10 10 10 10 10 10 10 10 10 10 10 10 10 10 10 10 10 10 10 10 10 10 10 10 10 10 10 10 10 10 10 10 10 10 10 10 10 10 10 10 10 10 10 10 10 10 10 10 10 10 10 10 10 10 10 10 10 10 10 10 10 10 10 10 10 10 10 10 10 10 10 10 10 10 10 10 10 10 10 10 10 10 10 10 10 10 10 10 10 10 10 10 10 10 10 10 10 10 10 10 10 10 10 10 10 10 10 10 10 10 10 10 10 10 10 10 10 10 10 10 10 10 10 10 10 10 10 10 10 10 10 10 10 10 10 10 10 10 </DataArray>
</Cells>
<PointData  Vectors="f_37-0"> 
<DataArray  type="Float64"  Name="f_37-0"  NumberOfComponents="3" format="ascii">1.0682058511733299e-02 -5.3629217471202204e-03 0.0000000000000000e+00  -7.9796799052311751e-05 6.7589983872957219e-05 -6.4261414513045907e-03  1.7295584992955797e-02 -4.6450831106762350e-03 0.0000000000000000e+00  3.1501828771289730e-05 3.7756457092754342e-05 -7.8339587685639749e-03  1.2636188512910568e-02 4.7071969703715508e-03 0.0000000000000000e+00  5.5748725480693553e-03 1.0880126708144542e-02 0.0000000000000000e+00  -4.4537950466783409e-03 1.2524253471733325e-02 0.0000000000000000e+00  -1.0683863471229399e-02 5.5418549067946686e-03 0.0000000000000000e+00  -1.2619770270487590e-02 -4.7939443057299505e-03 0.0000000000000000e+00  -5.6522791485927567e-03 -1.0265649740519252e-02 0.0000000000000000e+00  4.1348625861873612e-03 -1.2356890695403567e-02 0.0000000000000000e+00  1.6486101049262007e-02 9.9257953476344293e-03 0.0000000000000000e+00  4.8025713006661285e-03 1.7497160306122521e-02 0.0000000000000000e+00  -9.6111494348962087e-03 1.6879087359860729e-02 0.0000000000000000e+00  -1.7429782975218189e-02 4.6664528609731276e-03 0.0000000000000000e+00  -1.6427644698084200e-02 -1.0493951175653229e-02 0.0000000000000000e+00  -4.3932090404898896e-03 -1.7544491236800224e-02 0.0000000000000000e+00  9.5797287756899593e-03 -1.6637332231518885e-02 0.0000000000000000e+00  8.9015504238249277e-03 1.3540709748724423e-03 -6.0195547877884637e-03  2.0008980823338954e-03 5.2949659283721530e-03 -8.2340452000509313e-03  1.6681681767709011e-02 6.5297922557784594e-04 -5.1924658460602308e-03  9.2352353493527599e-03 4.0609322911920563e-03 -8.4904701713499498e-03  5.7500861675437130e-03 7.4220681115130310e-03 -5.8220892235348537e-03  -2.2519207755633632e-03 5.2616118614104016e-03 -8.3254764222082198e-03  -1.4079487893604065e-03 9.0643931916894096e-03 -5.8706626613498148e-03  -5.7664739344616056e-03 1.7166330167816884e-03 -8.2328657144678779e-03  -7.3639345598291266e-03 5.0043433958565000e-03 -5.4371253369785068e-03  -5.1111198164710669e-03 -2.3899628606103272e-03 -8.1038235337046929e-03  -9.3533597149480282e-03 -1.5507425422319403e-03 -5.8285553736842884e-03  -1.8702123574045695e-03 -5.0941580381652814e-03 -8.3053616720756805e-03  -5.1540288992897119e-03 -7.5031379419369963e-03 -5.5963358242512714e-03  2.3409713402556217e-03 -5.2390691953069675e-03 -8.3248750996308182e-03  1.3606256900364070e-03 -9.1406835875251780e-03 -5.8214102064504183e-03  5.8872347436487952e-03 -1.8213558115225280e-03 -8.4956666639018196e-03  7.2333986552981641e-03 -5.3856711465870332e-03 -5.7956358632050668e-03  5.1490822823213210e-03 2.2628366580178822e-03 -8.3537314941640965e-03  1.1841603272183206e-02 1.2479459467851560e-02 -5.4513779809821118e-03  4.1022283098005206e-03 9.4761013547599738e-03 -8.8640948223562520e-03  -5.4820447921370957e-04 1.6923415082953700e-02 -5.2681148824120479e-03  -3.6852806835311856e-03 9.4222709671330732e-03 -8.6612091110085977e-03  -1.1856254534163614e-02 1.1274620131407093e-02 -5.1763398051690385e-03  -9.2139052184399203e-03 3.4625268028469873e-03 -8.5834237240650958e-03  -1.7033278362560092e-02 -4.3761562809150809e-04 -5.4677995452490366e-03  -9.4115605878486077e-03 -4.0601573455991465e-03 -8.6352571513765852e-03  -1.1867728887591406e-02 -1.2254143228417226e-02 -5.4662311092257311e-03  -3.9886106742658333e-03 -9.3485184567917799e-03 -9.1220785554744725e-03  2.8736926964588011e-04 -1.7311746059741801e-02 -5.5199273624080454e-03  3.8037083773973597e-03 -9.5515345112818575e-03 -8.8825473576106262e-03  1.2184194381823790e-02 -1.1456042493594812e-02 -5.4693163003389752e-03  9.2845049919250341e-03 -3.8239000252652065e-03 -9.0875552366235495e-03  -1.6031325769017044e-02 -1.7364841321557899e-03 0.0000000000000000e+00  -1.2273568641607831e-02 9.8398101969034719e-03 0.0000000000000000e+00  -1.7727874953249864e-03 1.5964520412569020e-02 0.0000000000000000e+00  1.0009260857463875e-02 1.2594518469448923e-02 0.0000000000000000e+00  1.5809849485078284e-02 1.8367423260359332e-03 0.0000000000000000e+00  1.2368974849368957e-02 -9.8446593743082619e-03 0.0000000000000000e+00  1.7028752429815309e-03 -1.5600898224571514e-02 0.0000000000000000e+00  -1.0001197552424059e-02 -1.2308941057120408e-02 0.0000000000000000e+00  </DataArray> 
</PointData> 
</Piece>
</UnstructuredGrid>
</VTKFile>