<?xml version="1.0"?>
<VTKFile type="UnstructuredGrid"  version="0.1"  >
<UnstructuredGrid>
<Piece  NumberOfPoints="58" NumberOfCells="148">
<Points>
<DataArray  type="Float64"  NumberOfComponents="3"  format="ascii">0.4023249999999999 0 0  0 0 -0.8046499999999999  0.266805 0 0  0 0 -0.6691299999999999  0.2844867357408777 0.2844867357408777 0  2.775557561562891e-17 0.4023249999999999 0  -0.2844867357408777 0.2844867357408777 0  -0.4023249999999999 2.775557561562891e-17 0  -0.2844867357408777 -0.2844867357408777 0  -2.775557561562891e-17 -0.4023249999999999 0  0.2844867357408777 -0.2844867357408777 0  0.1886596247544768 0.1886596247544768 0  2.775557561562891e-17 0.266805 0  -0.1886596247544767 0.1886596247544768 0  -0.266805 8.326672684688674e-17 0  -0.1886596247544768 -0.1886596247544767 0  -1.387778780781446e-16 -0.266805 0  0.1886596247544766 -0.1886596247544769 0  0.3686082568662342 0 -0.3224491190562394  0.2536108874396318 0 -0.6246500569025265  0.2466044134321161 0 -0.2554056152626437  0.1766587270840894 0 -0.5014405794480644  0.2606453980314651 0.2606453980314651 -0.3224491190562516  0.1793299782912967 0.1793299782912967 -0.6246500569025382  2.542952674080888e-17 0.3686082568662342 -0.3224491190562394  1.749609435972772e-17 0.2536108874396318 -0.6246500569025265  -0.2606453980314651 0.2606453980314651 -0.3224491190562516  -0.1793299782912967 0.1793299782912967 -0.6246500569025382  -0.3686082568662342 2.542952674080888e-17 -0.3224491190562394  -0.2536108874396318 1.749609435972772e-17 -0.6246500569025265  -0.2606453980314651 -0.2606453980314651 -0.3224491190562516  -0.1793299782912967 -0.1793299782912967 -0.6246500569025382  -2.542952674080888e-17 -0.3686082568662342 -0.3224491190562394  -1.749609435972772e-17 -0.2536108874396318 -0.6246500569025265  0.2606453980314651 -0.2606453980314651 -0.3224491190562516  0.1793299782912967 -0.1793299782912967 -0.6246500569025382  0.1743756530083801 0.17437565300838 -0.2554056152626451  0.1249165838769436 0.1249165838769436 -0.5014405794480633  2.565411984094344e-17 0.2466044134321161 -0.2554056152626437  1.837770902997769e-17 0.1766587270840894 -0.5014405794480644  -0.1743756530083802 0.1743756530083803 -0.2554056152626436  -0.1249165838769431 0.1249165838769432 -0.5014405794480646  -0.2466044134321161 7.696235952283031e-17 -0.2554056152626437  -0.1766587270840894 5.513312708993305e-17 -0.5014405794480644  -0.1743756530083802 -0.17437565300838 -0.2554056152626445  -0.1249165838769429 -0.1249165838769428 -0.5014405794480657  -1.282705992047172e-16 -0.2466044134321161 -0.2554056152626437  -9.188854514988842e-17 -0.1766587270840894 -0.5014405794480644  0.1743756530083804 -0.1743756530083806 -0.2554056152626407  0.1249165838769432 -0.1249165838769434 -0.5014405794480641  -0.2855690901238386 -0.1182865901238386 0  -0.2855690901238385 0.1182865901238386 0  -0.1182865901238386 0.2855690901238386 -0  0.1182865901238386 0.2855690901238386 0  0.2855690901238386 0.1182865901238386 0  0.2855690901238386 -0.1182865901238386 0  0.1182865901238385 -0.2855690901238386 0  -0.1182865901238387 -0.2855690901238386 0  </DataArray>
</Points>
<Cells>
<DataArray  type="UInt32"  Name="connectivity"  format="ascii">5 6 24 52  8 9 32 57  7 8 28 50  9 10 32 56  0 4 18 54  6 7 28 51  0 10 18 55  4 5 24 53  10 18 34 55  4 18 22 54  4 22 24 53  8 28 30 50  30 42 44 50  22 23 37 39  21 22 23 37  30 31 43 45  30 31 45 47  20 34 48 55  22 36 38 53  20 22 36 54  28 40 42 51  21 34 35 49  33 34 47 49  16 17 46 56  15 16 46 57  25 26 39 41  22 24 38 53  18 20 34 55  18 20 22 54  28 30 42 50  29 30 31 43  22 23 25 39  19 21 22 23  30 31 33 47  28 29 41 43  15 42 44 50  9 32 46 57  0 18 20 55  5 24 38 52  7 28 42 51  5 24 38 53  0 18 20 54  9 32 46 56  7 28 42 50  33 34 35 49  9 16 46 57  9 16 46 56  12 36 38 53  2 11 20 54  11 12 36 53  14 15 42 50  14 40 42 51  13 14 40 51  12 13 38 52  2 17 48 55  11 20 36 54  2 20 48 55  25 26 27 41  8 30 44 50  10 34 48 55  4 22 36 54  4 22 36 53  27 28 29 41  18 21 34 35  26 27 28 41  18 19 21 35  28 29 30 43  24 25 26 39  22 24 25 39  30 32 33 47  18 19 21 22  32 33 34 47  0 2 20 54  0 2 20 55  7 14 42 50  7 14 42 51  5 12 38 52  5 12 38 53  30 43 44 45  30 44 45 47  22 36 37 39  21 22 36 37  34 47 48 49  21 34 48 49  1 3 31 33  1 3 23 25  1 3 19 23  1 3 29 31  8 15 44 50  30 42 43 44  26 39 40 41  22 36 38 39  20 21 22 36  20 21 34 48  4 11 36 54  4 11 36 53  6 13 40 51  10 17 48 55  3 31 43 45  3 23 37 39  3 31 45 47  3 21 23 37  28 41 42 43  32 44 46 47  1 3 27 29  1 3 33 35  1 3 19 35  1 3 25 27  32 46 47 48  28 40 41 42  24 38 39 40  30 32 44 47  3 33 47 49  3 21 35 49  26 28 40 41  28 30 42 43  24 26 39 40  22 24 38 39  32 34 47 48  18 20 21 22  18 20 21 34  3 29 41 43  3 25 39 41  3 29 31 43  3 23 25 39  3 31 33 47  3 19 21 23  3 33 35 49  3 27 29 41  3 25 27 41  3 19 21 35  6 24 26 40  10 32 34 48  8 30 32 44  6 26 28 40  6 28 40 51  8 15 44 46  8 15 46 57  8 32 44 46  8 32 46 57  10 17 46 56  10 17 46 48  10 32 46 56  10 32 46 48  6 13 38 52  6 13 38 40  6 24 38 52  6 24 38 40  </DataArray>
<DataArray  type="UInt32"  Name="offsets"  format="ascii">4 8 12 16 20 24 28 32 36 40 44 48 52 56 60 64 68 72 76 80 84 88 92 96 100 104 108 112 116 120 124 128 132 136 140 144 148 152 156 160 164 168 172 176 180 184 188 192 196 200 204 208 212 216 220 224 228 232 236 240 244 248 252 256 260 264 268 272 276 280 284 288 292 296 300 304 308 312 316 320 324 328 332 336 340 344 348 352 356 360 364 368 372 376 380 384 388 392 396 400 404 408 412 416 420 424 428 432 436 440 444 448 452 456 460 464 468 472 476 480 484 488 492 496 500 504 508 512 516 520 524 528 532 536 540 544 548 552 556 560 564 568 572 576 580 584 588 592 </DataArray>
<DataArray  type="UInt8"  Name="types"  format="ascii">10 10 10 10 10 10 10 10 10 10 10 10 10 10 10 10 10 10 10 10 10 10 10 10 10 10 10 10 10 10 10 10 10 10 10 10 10 10 10 10 10 10 10 10 10 10 10 10 10 10 10 10 10 10 10 10 10 10 10 10 10 10 10 10 10 10 10 10 10 10 10 10 10 10 10 10 10 10 10 10 10 10 10 10 10 10 10 10 10 10 10 10 10 10 10 10 10 10 10 10 10 10 10 10 10 10 10 10 10 10 10 10 10 10 10 10 10 10 10 10 10 10 10 10 10 10 10 10 10 10 10 10 10 10 10 10 10 10 10 10 10 10 10 10 10 10 10 10 </DataArray>
</Cells>
<PointData  Vectors="f_37-0"> 
<DataArray  type="Float64"  Name="f_37-0"  NumberOfComponents="3" format="ascii">4.1209451709164867e-02 -2.2451441667379658e-02 0.0000000000000000e+00  -1.2532387200508421e-03 1.1838716008051248e-03 -5.9619557071225300e-02  7.3996635353109824e-02 -2.0804499829213230e-02 0.0000000000000000e+00  -4.3504180641912901e-04 -3.9201696470286628e-04 -9.2164904086815658e-02  4.8663172716971036e-02 1.4259992349844500e-02 0.0000000000000000e+00  2.2050230232083176e-02 4.1306714311054468e-02 0.0000000000000000e+00  -1.5247316990918530e-02 4.7566577178580725e-02 0.0000000000000000e+00  -3.9507045398005571e-02 2.4151170317697028e-02 0.0000000000000000e+00  -4.9102877919447792e-02 -1.4464730076534156e-02 0.0000000000000000e+00  -2.3328879688019440e-02 -3.7809873902053814e-02 0.0000000000000000e+00  1.4519386442030911e-02 -4.7655023983985016e-02 0.0000000000000000e+00  6.8255370115586647e-02 3.9082544049077787e-02 0.0000000000000000e+00  2.1055697261716844e-02 7.3971061816258329e-02 0.0000000000000000e+00  -3.9429047383391529e-02 6.9678276395242142e-02 0.0000000000000000e+00  -7.3651278049727764e-02 2.0175348762478552e-02 0.0000000000000000e+00  -6.9536122719372914e-02 -4.1395463951237256e-02 0.0000000000000000e+00  -1.9944790606499320e-02 -7.3731121292156393e-02 0.0000000000000000e+00  3.9586357304222955e-02 -6.9398724793495320e-02 0.0000000000000000e+00  3.7485777653754840e-02 6.9432749674131038e-03 -4.3360554870751154e-02  1.4100304177605374e-02 2.5515894705030774e-02 -6.9385690812314160e-02  7.3621092657079584e-02 4.1510840354678597e-03 -4.1205232124500807e-02  4.8934841466252633e-02 2.4086968933003598e-02 -7.8768789021070401e-02  2.3059208534776856e-02 3.1054429108350060e-02 -3.8340963897524574e-02  -1.0098349316662755e-02 2.5423195551369047e-02 -6.2875027647030471e-02  -9.3304136781277181e-03 3.8894573069821074e-02 -4.1864534955115891e-02  -3.0232260135087865e-02 1.3197106385068203e-02 -6.7020019297681574e-02  -3.4336961971119725e-02 2.1075467785139638e-02 -3.6702467066492377e-02  -2.8949975376466052e-02 -1.0086536600928907e-02 -6.9946935223528628e-02  -3.8482837174335427e-02 -1.0504965965178506e-02 -4.0468552453976431e-02  -1.2423147243458532e-02 -2.4957514153035293e-02 -6.8584781310070481e-02  -1.7996646783824899e-02 -3.4435264763074756e-02 -3.6825134611188956e-02  1.2690483214620457e-02 -2.6637691680960127e-02 -6.2601592413350893e-02  8.7025647253035059e-03 -4.1223275517538391e-02 -4.1788072295930678e-02  2.9628772218738612e-02 -1.2597237244594451e-02 -6.6753422298361509e-02  3.1706436026376669e-02 -2.3580967640419667e-02 -3.8949604989456620e-02  2.9111113615111733e-02 8.4150710958503655e-03 -6.7624084862284370e-02  5.1527894559102817e-02 5.6259830417179413e-02 -4.2215199758365789e-02  1.7850243740514568e-02 5.0661987856503436e-02 -7.9937967665838050e-02  -3.9804798288401695e-03 7.4708196739838528e-02 -4.1509036060975946e-02  -2.3279085414338565e-02 4.9861006921730316e-02 -7.9141751058713836e-02  -5.4570931745276205e-02 4.9637308181556143e-02 -4.1337400050071818e-02  -5.0478414625154115e-02 1.7177451697791987e-02 -7.8538682094179094e-02  -7.4928787762765139e-02 -3.6983206086882827e-03 -4.1646420570955620e-02  -4.8770527287340992e-02 -2.3895511526330501e-02 -7.9179489152450530e-02  -5.0258962896207675e-02 -5.5454804723417538e-02 -4.1938684444193380e-02  -1.7433688532143835e-02 -4.9565769140153405e-02 -7.9970122904948676e-02  3.7524477764718993e-03 -7.6259974398139183e-02 -4.1877639414429721e-02  2.3333153552028221e-02 -5.0719817976825753e-02 -8.0358290331903531e-02  5.5603259801909888e-02 -5.0897799433498661e-02 -4.2038092603888300e-02  4.9727504203802751e-02 -1.7474773931317047e-02 -8.0104214867875417e-02  -6.7320414690542424e-02 -5.0898091429586265e-03 0.0000000000000000e+00  -4.9363718371180365e-02 4.2554677308964159e-02 0.0000000000000000e+00  -5.2983425100965017e-03 6.4824406363034159e-02 0.0000000000000000e+00  4.3628688105779613e-02 5.0520891132595162e-02 0.0000000000000000e+00  6.6411110246949664e-02 4.9071870404382052e-03 0.0000000000000000e+00  5.0202072055164700e-02 -4.3358761215348068e-02 0.0000000000000000e+00  5.1813028309176277e-03 -6.4397865235319193e-02 0.0000000000000000e+00  -4.2871924871260673e-02 -4.9082938629195390e-02 0.0000000000000000e+00  </DataArray> 
</PointData> 
</Piece>
</UnstructuredGrid>
</VTKFile>