<?xml version="1.0"?>
<VTKFile type="UnstructuredGrid"  version="0.1"  >
<UnstructuredGrid>
<Piece  NumberOfPoints="58" NumberOfCells="148">
<Points>
<DataArray  type="Float64"  NumberOfComponents="3"  format="ascii">0.4023249999999999 0 0  0 0 -0.8046499999999999  0.266805 0 0  0 0 -0.6691299999999999  0.2844867357408777 0.2844867357408777 0  2.775557561562891e-17 0.4023249999999999 0  -0.2844867357408777 0.2844867357408777 0  -0.4023249999999999 2.775557561562891e-17 0  -0.2844867357408777 -0.2844867357408777 0  -2.775557561562891e-17 -0.4023249999999999 0  0.2844867357408777 -0.2844867357408777 0  0.1886596247544768 0.1886596247544768 0  2.775557561562891e-17 0.266805 0  -0.1886596247544767 0.1886596247544768 0  -0.266805 8.326672684688674e-17 0  -0.1886596247544768 -0.1886596247544767 0  -1.387778780781446e-16 -0.266805 0  0.1886596247544766 -0.1886596247544769 0  0.3686082568662342 0 -0.3224491190562394  0.2536108874396318 0 -0.6246500569025265  0.2466044134321161 0 -0.2554056152626437  0.1766587270840894 0 -0.5014405794480644  0.2606453980314651 0.2606453980314651 -0.3224491190562516  0.1793299782912967 0.1793299782912967 -0.6246500569025382  2.542952674080888e-17 0.3686082568662342 -0.3224491190562394  1.749609435972772e-17 0.2536108874396318 -0.6246500569025265  -0.2606453980314651 0.2606453980314651 -0.3224491190562516  -0.1793299782912967 0.1793299782912967 -0.6246500569025382  -0.3686082568662342 2.542952674080888e-17 -0.3224491190562394  -0.2536108874396318 1.749609435972772e-17 -0.6246500569025265  -0.2606453980314651 -0.2606453980314651 -0.3224491190562516  -0.1793299782912967 -0.1793299782912967 -0.6246500569025382  -2.542952674080888e-17 -0.3686082568662342 -0.3224491190562394  -1.749609435972772e-17 -0.2536108874396318 -0.6246500569025265  0.2606453980314651 -0.2606453980314651 -0.3224491190562516  0.1793299782912967 -0.1793299782912967 -0.6246500569025382  0.1743756530083801 0.17437565300838 -0.2554056152626451  0.1249165838769436 0.1249165838769436 -0.5014405794480633  2.565411984094344e-17 0.2466044134321161 -0.2554056152626437  1.837770902997769e-17 0.1766587270840894 -0.5014405794480644  -0.1743756530083802 0.1743756530083803 -0.2554056152626436  -0.1249165838769431 0.1249165838769432 -0.5014405794480646  -0.2466044134321161 7.696235952283031e-17 -0.2554056152626437  -0.1766587270840894 5.513312708993305e-17 -0.5014405794480644  -0.1743756530083802 -0.17437565300838 -0.2554056152626445  -0.1249165838769429 -0.1249165838769428 -0.5014405794480657  -1.282705992047172e-16 -0.2466044134321161 -0.2554056152626437  -9.188854514988842e-17 -0.1766587270840894 -0.5014405794480644  0.1743756530083804 -0.1743756530083806 -0.2554056152626407  0.1249165838769432 -0.1249165838769434 -0.5014405794480641  -0.2855690901238386 -0.1182865901238386 0  -0.2855690901238385 0.1182865901238386 0  -0.1182865901238386 0.2855690901238386 -0  0.1182865901238386 0.2855690901238386 0  0.2855690901238386 0.1182865901238386 0  0.2855690901238386 -0.1182865901238386 0  0.1182865901238385 -0.2855690901238386 0  -0.1182865901238387 -0.2855690901238386 0  </DataArray>
</Points>
<Cells>
<DataArray  type="UInt32"  Name="connectivity"  format="ascii">5 6 24 52  8 9 32 57  7 8 28 50  9 10 32 56  0 4 18 54  6 7 28 51  0 10 18 55  4 5 24 53  10 18 34 55  4 18 22 54  4 22 24 53  8 28 30 50  30 42 44 50  22 23 37 39  21 22 23 37  30 31 43 45  30 31 45 47  20 34 48 55  22 36 38 53  20 22 36 54  28 40 42 51  21 34 35 49  33 34 47 49  16 17 46 56  15 16 46 57  25 26 39 41  22 24 38 53  18 20 34 55  18 20 22 54  28 30 42 50  29 30 31 43  22 23 25 39  19 21 22 23  30 31 33 47  28 29 41 43  15 42 44 50  9 32 46 57  0 18 20 55  5 24 38 52  7 28 42 51  5 24 38 53  0 18 20 54  9 32 46 56  7 28 42 50  33 34 35 49  9 16 46 57  9 16 46 56  12 36 38 53  2 11 20 54  11 12 36 53  14 15 42 50  14 40 42 51  13 14 40 51  12 13 38 52  2 17 48 55  11 20 36 54  2 20 48 55  25 26 27 41  8 30 44 50  10 34 48 55  4 22 36 54  4 22 36 53  27 28 29 41  18 21 34 35  26 27 28 41  18 19 21 35  28 29 30 43  24 25 26 39  22 24 25 39  30 32 33 47  18 19 21 22  32 33 34 47  0 2 20 54  0 2 20 55  7 14 42 50  7 14 42 51  5 12 38 52  5 12 38 53  30 43 44 45  30 44 45 47  22 36 37 39  21 22 36 37  34 47 48 49  21 34 48 49  1 3 31 33  1 3 23 25  1 3 19 23  1 3 29 31  8 15 44 50  30 42 43 44  26 39 40 41  22 36 38 39  20 21 22 36  20 21 34 48  4 11 36 54  4 11 36 53  6 13 40 51  10 17 48 55  3 31 43 45  3 23 37 39  3 31 45 47  3 21 23 37  28 41 42 43  32 44 46 47  1 3 27 29  1 3 33 35  1 3 19 35  1 3 25 27  32 46 47 48  28 40 41 42  24 38 39 40  30 32 44 47  3 33 47 49  3 21 35 49  26 28 40 41  28 30 42 43  24 26 39 40  22 24 38 39  32 34 47 48  18 20 21 22  18 20 21 34  3 29 41 43  3 25 39 41  3 29 31 43  3 23 25 39  3 31 33 47  3 19 21 23  3 33 35 49  3 27 29 41  3 25 27 41  3 19 21 35  6 24 26 40  10 32 34 48  8 30 32 44  6 26 28 40  6 28 40 51  8 15 44 46  8 15 46 57  8 32 44 46  8 32 46 57  10 17 46 56  10 17 46 48  10 32 46 56  10 32 46 48  6 13 38 52  6 13 38 40  6 24 38 52  6 24 38 40  </DataArray>
<DataArray  type="UInt32"  Name="offsets"  format="ascii">4 8 12 16 20 24 28 32 36 40 44 48 52 56 60 64 68 72 76 80 84 88 92 96 100 104 108 112 116 120 124 128 132 136 140 144 148 152 156 160 164 168 172 176 180 184 188 192 196 200 204 208 212 216 220 224 228 232 236 240 244 248 252 256 260 264 268 272 276 280 284 288 292 296 300 304 308 312 316 320 324 328 332 336 340 344 348 352 356 360 364 368 372 376 380 384 388 392 396 400 404 408 412 416 420 424 428 432 436 440 444 448 452 456 460 464 468 472 476 480 484 488 492 496 500 504 508 512 516 520 524 528 532 536 540 544 548 552 556 560 564 568 572 576 580 584 588 592 </DataArray>
<DataArray  type="UInt8"  Name="types"  format="ascii">10 10 10 10 10 10 10 10 10 10 10 10 10 10 10 10 10 10 10 10 10 10 10 10 10 10 10 10 10 10 10 10 10 10 10 10 10 10 10 10 10 10 10 10 10 10 10 10 10 10 10 10 10 10 10 10 10 10 10 10 10 10 10 10 10 10 10 10 10 10 10 10 10 10 10 10 10 10 10 10 10 10 10 10 10 10 10 10 10 10 10 10 10 10 10 10 10 10 10 10 10 10 10 10 10 10 10 10 10 10 10 10 10 10 10 10 10 10 10 10 10 10 10 10 10 10 10 10 10 10 10 10 10 10 10 10 10 10 10 10 10 10 10 10 10 10 10 10 </DataArray>
</Cells>
<PointData  Vectors="f_37-0"> 
<DataArray  type="Float64"  Name="f_37-0"  NumberOfComponents="3" format="ascii">2.1697288504183638e-02 -1.1245874307939809e-02 0.0000000000000000e+00  -2.2898198578352432e-04 1.4055050619984647e-04 -2.1455663750218890e-02  3.6068406449002027e-02 -9.7528100385880206e-03 0.0000000000000000e+00  3.8596837469055530e-05 1.9510847824347357e-05 -2.6692798095316335e-02  2.5540842666481049e-02 8.9262043477752566e-03 0.0000000000000000e+00  1.1437125109724125e-02 2.2066187405179877e-02 0.0000000000000000e+00  -8.5191499937312190e-03 2.5302466730709419e-02 0.0000000000000000e+00  -2.1587093185036817e-02 1.1686252961330997e-02 0.0000000000000000e+00  -2.5408275687742597e-02 -9.1458732921573440e-03 0.0000000000000000e+00  -1.1741392592700656e-02 -2.0852681822189138e-02 0.0000000000000000e+00  7.9269355086346010e-03 -2.5011699925860390e-02 0.0000000000000000e+00  3.3837200636587579e-02 2.0022906130136995e-02 0.0000000000000000e+00  1.0005246572493865e-02 3.6280663529188559e-02 0.0000000000000000e+00  -1.9801275104914199e-02 3.4562567039679831e-02 0.0000000000000000e+00  -3.6185846569922756e-02 9.7463552953665281e-03 0.0000000000000000e+00  -3.4052566864661529e-02 -2.1088887375479284e-02 0.0000000000000000e+00  -9.4365393109237580e-03 -3.6349863084425456e-02 0.0000000000000000e+00  1.9724550856841345e-02 -3.4201048511940134e-02 0.0000000000000000e+00  1.8754873437027159e-02 3.0217965327245569e-03 -1.5754322432613824e-02  5.1738190418748088e-03 1.2128642125125374e-02 -2.3905034552377975e-02  3.5422947284794448e-02 1.4792776810295344e-03 -1.4516619033353289e-02  2.1448003447399791e-02 9.6968166874010515e-03 -2.5900401084340757e-02  1.1814472457079991e-02 1.5647016155178210e-02 -1.4919207790210116e-02  -4.8414480733464434e-03 1.2352277564401357e-02 -2.3860156429413061e-02  -3.3527162506163657e-03 1.9089485253149512e-02 -1.5355090317885532e-02  -1.3287109198634829e-02 4.6341198985527425e-03 -2.3869954300512645e-02  -1.5970191765344036e-02 1.0309631400785684e-02 -1.4162550481016301e-02  -1.2261434289733088e-02 -5.1807008997775831e-03 -2.3720850725016909e-02  -1.9553210290430164e-02 -3.6833545138851504e-03 -1.5187286998224176e-02  -4.9127372860490954e-03 -1.1700578129433032e-02 -2.4085155479033376e-02  -1.0448855644005503e-02 -1.6058955847463880e-02 -1.4318198005050286e-02  5.1702013562039562e-03 -1.2430282783683884e-02 -2.3781644097849632e-02  3.3047658044829706e-03 -1.9379470465392797e-02 -1.5305385786405872e-02  1.3503502537017128e-02 -4.8113078095047748e-03 -2.4320150615409684e-02  1.5505071818182822e-02 -1.1220277921169981e-02 -1.4962151577115661e-02  1.2292132645489050e-02 4.7889779198887882e-03 -2.4130652952462167e-02  2.4976016869531395e-02 2.6508184056238157e-02 -1.5077791131792889e-02  8.9997969272551902e-03 2.1985013214314199e-02 -2.6555006012776154e-02  -1.2871896032653350e-03 3.5914805866353774e-02 -1.4690536394553682e-02  -9.0195942755676821e-03 2.1811390395543171e-02 -2.6246880618338866e-02  -2.5527751076266640e-02 2.3937789828796206e-02 -1.4577189038514352e-02  -2.1559320760256000e-02 7.9578471633566083e-03 -2.6016737336196676e-02  -3.6102159433508474e-02 -1.1458272624431563e-03 -1.5004285872911990e-02  -2.1692880639398348e-02 -9.7528076747642242e-03 -2.6165139060422220e-02  -2.4855282780435209e-02 -2.6087544583425319e-02 -1.5080510893859709e-02  -8.7745848826249057e-03 -2.1638600958856835e-02 -2.6998942116493688e-02  9.6142473890060965e-04 -3.6646915348163389e-02 -1.5123088809779641e-02  9.1864872549126449e-03 -2.2067853316672565e-02 -2.6671509248087297e-02  2.6112510414852162e-02 -2.4381851064050782e-02 -1.5093828443487899e-02  2.1598177292141148e-02 -8.4823014158601166e-03 -2.6971686478420132e-02  -3.3064058203839841e-02 -3.1072432723603547e-03 0.0000000000000000e+00  -2.4919243971679848e-02 2.0597249096676391e-02 0.0000000000000000e+00  -3.2438922288269569e-03 3.2577117777184070e-02 0.0000000000000000e+00  2.0937912699298102e-02 2.5590297940725631e-02 0.0000000000000000e+00  3.2602138196508590e-02 3.2128032274368608e-03 0.0000000000000000e+00  2.5228315290074615e-02 -2.0703786150930006e-02 0.0000000000000000e+00  3.0986682048229613e-03 -3.2007342807938925e-02 0.0000000000000000e+00  -2.0862049264663788e-02 -2.5021027275037973e-02 0.0000000000000000e+00  </DataArray> 
</PointData> 
</Piece>
</UnstructuredGrid>
</VTKFile>