<?xml version="1.0"?>
<VTKFile type="UnstructuredGrid"  version="0.1"  >
<UnstructuredGrid>
<Piece  NumberOfPoints="58" NumberOfCells="148">
<Points>
<DataArray  type="Float64"  NumberOfComponents="3"  format="ascii">0.4023249999999999 0 0  0 0 -0.8046499999999999  0.266805 0 0  0 0 -0.6691299999999999  0.2844867357408777 0.2844867357408777 0  2.775557561562891e-17 0.4023249999999999 0  -0.2844867357408777 0.2844867357408777 0  -0.4023249999999999 2.775557561562891e-17 0  -0.2844867357408777 -0.2844867357408777 0  -2.775557561562891e-17 -0.4023249999999999 0  0.2844867357408777 -0.2844867357408777 0  0.1886596247544768 0.1886596247544768 0  2.775557561562891e-17 0.266805 0  -0.1886596247544767 0.1886596247544768 0  -0.266805 8.326672684688674e-17 0  -0.1886596247544768 -0.1886596247544767 0  -1.387778780781446e-16 -0.266805 0  0.1886596247544766 -0.1886596247544769 0  0.3686082568662342 0 -0.3224491190562394  0.2536108874396318 0 -0.6246500569025265  0.2466044134321161 0 -0.2554056152626437  0.1766587270840894 0 -0.5014405794480644  0.2606453980314651 0.2606453980314651 -0.3224491190562516  0.1793299782912967 0.1793299782912967 -0.6246500569025382  2.542952674080888e-17 0.3686082568662342 -0.3224491190562394  1.749609435972772e-17 0.2536108874396318 -0.6246500569025265  -0.2606453980314651 0.2606453980314651 -0.3224491190562516  -0.1793299782912967 0.1793299782912967 -0.6246500569025382  -0.3686082568662342 2.542952674080888e-17 -0.3224491190562394  -0.2536108874396318 1.749609435972772e-17 -0.6246500569025265  -0.2606453980314651 -0.2606453980314651 -0.3224491190562516  -0.1793299782912967 -0.1793299782912967 -0.6246500569025382  -2.542952674080888e-17 -0.3686082568662342 -0.3224491190562394  -1.749609435972772e-17 -0.2536108874396318 -0.6246500569025265  0.2606453980314651 -0.2606453980314651 -0.3224491190562516  0.1793299782912967 -0.1793299782912967 -0.6246500569025382  0.1743756530083801 0.17437565300838 -0.2554056152626451  0.1249165838769436 0.1249165838769436 -0.5014405794480633  2.565411984094344e-17 0.2466044134321161 -0.2554056152626437  1.837770902997769e-17 0.1766587270840894 -0.5014405794480644  -0.1743756530083802 0.1743756530083803 -0.2554056152626436  -0.1249165838769431 0.1249165838769432 -0.5014405794480646  -0.2466044134321161 7.696235952283031e-17 -0.2554056152626437  -0.1766587270840894 5.513312708993305e-17 -0.5014405794480644  -0.1743756530083802 -0.17437565300838 -0.2554056152626445  -0.1249165838769429 -0.1249165838769428 -0.5014405794480657  -1.282705992047172e-16 -0.2466044134321161 -0.2554056152626437  -9.188854514988842e-17 -0.1766587270840894 -0.5014405794480644  0.1743756530083804 -0.1743756530083806 -0.2554056152626407  0.1249165838769432 -0.1249165838769434 -0.5014405794480641  -0.2855690901238386 -0.1182865901238386 0  -0.2855690901238385 0.1182865901238386 0  -0.1182865901238386 0.2855690901238386 -0  0.1182865901238386 0.2855690901238386 0  0.2855690901238386 0.1182865901238386 0  0.2855690901238386 -0.1182865901238386 0  0.1182865901238385 -0.2855690901238386 0  -0.1182865901238387 -0.2855690901238386 0  </DataArray>
</Points>
<Cells>
<DataArray  type="UInt32"  Name="connectivity"  format="ascii">5 6 24 52  8 9 32 57  7 8 28 50  9 10 32 56  0 4 18 54  6 7 28 51  0 10 18 55  4 5 24 53  10 18 34 55  4 18 22 54  4 22 24 53  8 28 30 50  30 42 44 50  22 23 37 39  21 22 23 37  30 31 43 45  30 31 45 47  20 34 48 55  22 36 38 53  20 22 36 54  28 40 42 51  21 34 35 49  33 34 47 49  16 17 46 56  15 16 46 57  25 26 39 41  22 24 38 53  18 20 34 55  18 20 22 54  28 30 42 50  29 30 31 43  22 23 25 39  19 21 22 23  30 31 33 47  28 29 41 43  15 42 44 50  9 32 46 57  0 18 20 55  5 24 38 52  7 28 42 51  5 24 38 53  0 18 20 54  9 32 46 56  7 28 42 50  33 34 35 49  9 16 46 57  9 16 46 56  12 36 38 53  2 11 20 54  11 12 36 53  14 15 42 50  14 40 42 51  13 14 40 51  12 13 38 52  2 17 48 55  11 20 36 54  2 20 48 55  25 26 27 41  8 30 44 50  10 34 48 55  4 22 36 54  4 22 36 53  27 28 29 41  18 21 34 35  26 27 28 41  18 19 21 35  28 29 30 43  24 25 26 39  22 24 25 39  30 32 33 47  18 19 21 22  32 33 34 47  0 2 20 54  0 2 20 55  7 14 42 50  7 14 42 51  5 12 38 52  5 12 38 53  30 43 44 45  30 44 45 47  22 36 37 39  21 22 36 37  34 47 48 49  21 34 48 49  1 3 31 33  1 3 23 25  1 3 19 23  1 3 29 31  8 15 44 50  30 42 43 44  26 39 40 41  22 36 38 39  20 21 22 36  20 21 34 48  4 11 36 54  4 11 36 53  6 13 40 51  10 17 48 55  3 31 43 45  3 23 37 39  3 31 45 47  3 21 23 37  28 41 42 43  32 44 46 47  1 3 27 29  1 3 33 35  1 3 19 35  1 3 25 27  32 46 47 48  28 40 41 42  24 38 39 40  30 32 44 47  3 33 47 49  3 21 35 49  26 28 40 41  28 30 42 43  24 26 39 40  22 24 38 39  32 34 47 48  18 20 21 22  18 20 21 34  3 29 41 43  3 25 39 41  3 29 31 43  3 23 25 39  3 31 33 47  3 19 21 23  3 33 35 49  3 27 29 41  3 25 27 41  3 19 21 35  6 24 26 40  10 32 34 48  8 30 32 44  6 26 28 40  6 28 40 51  8 15 44 46  8 15 46 57  8 32 44 46  8 32 46 57  10 17 46 56  10 17 46 48  10 32 46 56  10 32 46 48  6 13 38 52  6 13 38 40  6 24 38 52  6 24 38 40  </DataArray>
<DataArray  type="UInt32"  Name="offsets"  format="ascii">4 8 12 16 20 24 28 32 36 40 44 48 52 56 60 64 68 72 76 80 84 88 92 96 100 104 108 112 116 120 124 128 132 136 140 144 148 152 156 160 164 168 172 176 180 184 188 192 196 200 204 208 212 216 220 224 228 232 236 240 244 248 252 256 260 264 268 272 276 280 284 288 292 296 300 304 308 312 316 320 324 328 332 336 340 344 348 352 356 360 364 368 372 376 380 384 388 392 396 400 404 408 412 416 420 424 428 432 436 440 444 448 452 456 460 464 468 472 476 480 484 488 492 496 500 504 508 512 516 520 524 528 532 536 540 544 548 552 556 560 564 568 572 576 580 584 588 592 </DataArray>
<DataArray  type="UInt8"  Name="types"  format="ascii">10 10 10 10 10 10 10 10 10 10 10 10 10 10 10 10 10 10 10 10 10 10 10 10 10 10 10 10 10 10 10 10 10 10 10 10 10 10 10 10 10 10 10 10 10 10 10 10 10 10 10 10 10 10 10 10 10 10 10 10 10 10 10 10 10 10 10 10 10 10 10 10 10 10 10 10 10 10 10 10 10 10 10 10 10 10 10 10 10 10 10 10 10 10 10 10 10 10 10 10 10 10 10 10 10 10 10 10 10 10 10 10 10 10 10 10 10 10 10 10 10 10 10 10 10 10 10 10 10 10 10 10 10 10 10 10 10 10 10 10 10 10 10 10 10 10 10 10 </DataArray>
</Cells>
<PointData  Vectors="f_37-0"> 
<DataArray  type="Float64"  Name="f_37-0"  NumberOfComponents="3" format="ascii">2.5115724194556609e-02 -1.3135271243221978e-02 0.0000000000000000e+00  -2.9850094585648167e-04 1.8777404325758161e-04 -2.7946282380636560e-02  4.2135322881121186e-02 -1.1455464343821850e-02 0.0000000000000000e+00  2.3870502189166777e-05 -1.2394788349866592e-05 -3.5355690541261899e-02  2.9561752876154358e-02 1.0120802739099396e-02 0.0000000000000000e+00  1.3282180110829850e-02 2.5526596538868154e-02 0.0000000000000000e+00  -9.7031822911343175e-03 2.9229027652963462e-02 0.0000000000000000e+00  -2.4935254682423535e-02 1.3690239378489181e-02 0.0000000000000000e+00  -2.9392644192985651e-02 -1.0388946254405076e-02 0.0000000000000000e+00  -1.3686887029653656e-02 -2.4093393921498101e-02 0.0000000000000000e+00  9.0534372309703376e-03 -2.8935548082067046e-02 0.0000000000000000e+00  3.9382550488226163e-02 2.3162160329746113e-02 0.0000000000000000e+00  1.1734917980443788e-02 4.2330071785389493e-02 0.0000000000000000e+00  -2.3003106484386405e-02 4.0201619695179228e-02 0.0000000000000000e+00  -4.2216580254824436e-02 1.1407279283471692e-02 0.0000000000000000e+00  -3.9741528411251059e-02 -2.4400432326854928e-02 0.0000000000000000e+00  -1.1118533143157772e-02 -4.2375123615843620e-02 0.0000000000000000e+00  2.2928865886569550e-02 -3.9825334044221478e-02 0.0000000000000000e+00  2.1899718493286507e-02 3.6001848954293645e-03 -1.9568929962978956e-02  6.4566625644953621e-03 1.4514012727842161e-02 -3.0346105824846020e-02  4.1541322555763080e-02 1.8068477987746229e-03 -1.8231907559043699e-02  2.5806511418976514e-02 1.1798199199276316e-02 -3.3241716720114459e-02  1.3713701513257463e-02 1.8282928167982864e-02 -1.8397737335306377e-02  -5.6685256248259061e-03 1.4871174169066040e-02 -3.0073465147214221e-02  -4.0963309192214676e-03 2.2323861212881664e-02 -1.9063881932894194e-02  -1.5971533004878746e-02 5.8762543103822208e-03 -3.0241855454329405e-02  -1.8852604468797583e-02 1.1973909984075696e-02 -1.7511408062483698e-02  -1.4925746078440646e-02 -6.0746596371062623e-03 -3.0182473222308315e-02  -2.2783236400302085e-02 -4.5027283610927452e-03 -1.8810726986420334e-02  -6.1427508639757796e-03 -1.4000083755384987e-02 -3.0539657524342994e-02  -1.2014258711480034e-02 -1.8911580515263492e-02 -1.7649322891345354e-02  6.1549794902105550e-03 -1.5021310849658156e-02 -2.9938487000123932e-02  4.0467786785223381e-03 -2.2748730874186513e-02 -1.9023956152752854e-02  1.6194736393281506e-02 -6.0518971984533203e-03 -3.0714978800992384e-02  1.8217872222095123e-02 -1.3107348461640380e-02 -1.8479482781833142e-02  1.4949167241996929e-02 5.5569819610780669e-03 -3.0549505928093825e-02  2.9254533805392571e-02 3.1155343648709821e-02 -1.8896190456236826e-02  1.0614349971344491e-02 2.6473737227808651e-02 -3.3976199637365749e-02  -1.5872814537670680e-03 4.2132909087884085e-02 -1.8435930077880323e-02  -1.1044459103695592e-02 2.6230252894930320e-02 -3.3623983908204050e-02  -3.0084258268228779e-02 2.8075251957256027e-02 -1.8312572202528538e-02  -2.6022234465604425e-02 9.5196461483091580e-03 -3.3336672854559136e-02  -4.2331608607253483e-02 -1.4517371403541216e-03 -1.8758836816688305e-02  -2.6035279989150929e-02 -1.1881962896065107e-02 -3.3537043928549386e-02  -2.9029622099484630e-02 -3.0672943301287437e-02 -1.8873943593118867e-02  -1.0351828982829193e-02 -2.6023547839226412e-02 -3.4431768954050916e-02  1.2783894704228968e-03 -4.2973753464743247e-02 -1.8895365072302130e-02  1.1214002935582518e-02 -2.6539294660419366e-02 -3.4125519454551181e-02  3.0743350933705827e-02 -2.8629735421798509e-02 -1.8890899205624593e-02  2.6000952853021200e-02 -1.0041305608074813e-02 -3.4406656335574881e-02  -3.8534762327197845e-02 -3.4701287340426308e-03 0.0000000000000000e+00  -2.8879322076863015e-02 2.4095401642296746e-02 0.0000000000000000e+00  -3.6297400408989589e-03 3.7826552734485118e-02 0.0000000000000000e+00  2.4521098381517351e-02 2.9672754791552489e-02 0.0000000000000000e+00  3.7989706642354591e-02 3.5455837445580495e-03 0.0000000000000000e+00  2.9278975327107472e-02 -2.4268430929258893e-02 0.0000000000000000e+00  3.4682695808186232e-03 -3.7233777860456556e-02 0.0000000000000000e+00  -2.4386739578625409e-02 -2.8996595572900258e-02 0.0000000000000000e+00  </DataArray> 
</PointData> 
</Piece>
</UnstructuredGrid>
</VTKFile>