<?xml version="1.0"?>
<VTKFile type="UnstructuredGrid"  version="0.1"  >
<UnstructuredGrid>
<Piece  NumberOfPoints="58" NumberOfCells="148">
<Points>
<DataArray  type="Float64"  NumberOfComponents="3"  format="ascii">0.4023249999999999 0 0  0 0 -0.8046499999999999  0.266805 0 0  0 0 -0.6691299999999999  0.2844867357408777 0.2844867357408777 0  2.775557561562891e-17 0.4023249999999999 0  -0.2844867357408777 0.2844867357408777 0  -0.4023249999999999 2.775557561562891e-17 0  -0.2844867357408777 -0.2844867357408777 0  -2.775557561562891e-17 -0.4023249999999999 0  0.2844867357408777 -0.2844867357408777 0  0.1886596247544768 0.1886596247544768 0  2.775557561562891e-17 0.266805 0  -0.1886596247544767 0.1886596247544768 0  -0.266805 8.326672684688674e-17 0  -0.1886596247544768 -0.1886596247544767 0  -1.387778780781446e-16 -0.266805 0  0.1886596247544766 -0.1886596247544769 0  0.3686082568662342 0 -0.3224491190562394  0.2536108874396318 0 -0.6246500569025265  0.2466044134321161 0 -0.2554056152626437  0.1766587270840894 0 -0.5014405794480644  0.2606453980314651 0.2606453980314651 -0.3224491190562516  0.1793299782912967 0.1793299782912967 -0.6246500569025382  2.542952674080888e-17 0.3686082568662342 -0.3224491190562394  1.749609435972772e-17 0.2536108874396318 -0.6246500569025265  -0.2606453980314651 0.2606453980314651 -0.3224491190562516  -0.1793299782912967 0.1793299782912967 -0.6246500569025382  -0.3686082568662342 2.542952674080888e-17 -0.3224491190562394  -0.2536108874396318 1.749609435972772e-17 -0.6246500569025265  -0.2606453980314651 -0.2606453980314651 -0.3224491190562516  -0.1793299782912967 -0.1793299782912967 -0.6246500569025382  -2.542952674080888e-17 -0.3686082568662342 -0.3224491190562394  -1.749609435972772e-17 -0.2536108874396318 -0.6246500569025265  0.2606453980314651 -0.2606453980314651 -0.3224491190562516  0.1793299782912967 -0.1793299782912967 -0.6246500569025382  0.1743756530083801 0.17437565300838 -0.2554056152626451  0.1249165838769436 0.1249165838769436 -0.5014405794480633  2.565411984094344e-17 0.2466044134321161 -0.2554056152626437  1.837770902997769e-17 0.1766587270840894 -0.5014405794480644  -0.1743756530083802 0.1743756530083803 -0.2554056152626436  -0.1249165838769431 0.1249165838769432 -0.5014405794480646  -0.2466044134321161 7.696235952283031e-17 -0.2554056152626437  -0.1766587270840894 5.513312708993305e-17 -0.5014405794480644  -0.1743756530083802 -0.17437565300838 -0.2554056152626445  -0.1249165838769429 -0.1249165838769428 -0.5014405794480657  -1.282705992047172e-16 -0.2466044134321161 -0.2554056152626437  -9.188854514988842e-17 -0.1766587270840894 -0.5014405794480644  0.1743756530083804 -0.1743756530083806 -0.2554056152626407  0.1249165838769432 -0.1249165838769434 -0.5014405794480641  -0.2855690901238386 -0.1182865901238386 0  -0.2855690901238385 0.1182865901238386 0  -0.1182865901238386 0.2855690901238386 -0  0.1182865901238386 0.2855690901238386 0  0.2855690901238386 0.1182865901238386 0  0.2855690901238386 -0.1182865901238386 0  0.1182865901238385 -0.2855690901238386 0  -0.1182865901238387 -0.2855690901238386 0  </DataArray>
</Points>
<Cells>
<DataArray  type="UInt32"  Name="connectivity"  format="ascii">5 6 24 52  8 9 32 57  7 8 28 50  9 10 32 56  0 4 18 54  6 7 28 51  0 10 18 55  4 5 24 53  10 18 34 55  4 18 22 54  4 22 24 53  8 28 30 50  30 42 44 50  22 23 37 39  21 22 23 37  30 31 43 45  30 31 45 47  20 34 48 55  22 36 38 53  20 22 36 54  28 40 42 51  21 34 35 49  33 34 47 49  16 17 46 56  15 16 46 57  25 26 39 41  22 24 38 53  18 20 34 55  18 20 22 54  28 30 42 50  29 30 31 43  22 23 25 39  19 21 22 23  30 31 33 47  28 29 41 43  15 42 44 50  9 32 46 57  0 18 20 55  5 24 38 52  7 28 42 51  5 24 38 53  0 18 20 54  9 32 46 56  7 28 42 50  33 34 35 49  9 16 46 57  9 16 46 56  12 36 38 53  2 11 20 54  11 12 36 53  14 15 42 50  14 40 42 51  13 14 40 51  12 13 38 52  2 17 48 55  11 20 36 54  2 20 48 55  25 26 27 41  8 30 44 50  10 34 48 55  4 22 36 54  4 22 36 53  27 28 29 41  18 21 34 35  26 27 28 41  18 19 21 35  28 29 30 43  24 25 26 39  22 24 25 39  30 32 33 47  18 19 21 22  32 33 34 47  0 2 20 54  0 2 20 55  7 14 42 50  7 14 42 51  5 12 38 52  5 12 38 53  30 43 44 45  30 44 45 47  22 36 37 39  21 22 36 37  34 47 48 49  21 34 48 49  1 3 31 33  1 3 23 25  1 3 19 23  1 3 29 31  8 15 44 50  30 42 43 44  26 39 40 41  22 36 38 39  20 21 22 36  20 21 34 48  4 11 36 54  4 11 36 53  6 13 40 51  10 17 48 55  3 31 43 45  3 23 37 39  3 31 45 47  3 21 23 37  28 41 42 43  32 44 46 47  1 3 27 29  1 3 33 35  1 3 19 35  1 3 25 27  32 46 47 48  28 40 41 42  24 38 39 40  30 32 44 47  3 33 47 49  3 21 35 49  26 28 40 41  28 30 42 43  24 26 39 40  22 24 38 39  32 34 47 48  18 20 21 22  18 20 21 34  3 29 41 43  3 25 39 41  3 29 31 43  3 23 25 39  3 31 33 47  3 19 21 23  3 33 35 49  3 27 29 41  3 25 27 41  3 19 21 35  6 24 26 40  10 32 34 48  8 30 32 44  6 26 28 40  6 28 40 51  8 15 44 46  8 15 46 57  8 32 44 46  8 32 46 57  10 17 46 56  10 17 46 48  10 32 46 56  10 32 46 48  6 13 38 52  6 13 38 40  6 24 38 52  6 24 38 40  </DataArray>
<DataArray  type="UInt32"  Name="offsets"  format="ascii">4 8 12 16 20 24 28 32 36 40 44 48 52 56 60 64 68 72 76 80 84 88 92 96 100 104 108 112 116 120 124 128 132 136 140 144 148 152 156 160 164 168 172 176 180 184 188 192 196 200 204 208 212 216 220 224 228 232 236 240 244 248 252 256 260 264 268 272 276 280 284 288 292 296 300 304 308 312 316 320 324 328 332 336 340 344 348 352 356 360 364 368 372 376 380 384 388 392 396 400 404 408 412 416 420 424 428 432 436 440 444 448 452 456 460 464 468 472 476 480 484 488 492 496 500 504 508 512 516 520 524 528 532 536 540 544 548 552 556 560 564 568 572 576 580 584 588 592 </DataArray>
<DataArray  type="UInt8"  Name="types"  format="ascii">10 10 10 10 10 10 10 10 10 10 10 10 10 10 10 10 10 10 10 10 10 10 10 10 10 10 10 10 10 10 10 10 10 10 10 10 10 10 10 10 10 10 10 10 10 10 10 10 10 10 10 10 10 10 10 10 10 10 10 10 10 10 10 10 10 10 10 10 10 10 10 10 10 10 10 10 10 10 10 10 10 10 10 10 10 10 10 10 10 10 10 10 10 10 10 10 10 10 10 10 10 10 10 10 10 10 10 10 10 10 10 10 10 10 10 10 10 10 10 10 10 10 10 10 10 10 10 10 10 10 10 10 10 10 10 10 10 10 10 10 10 10 10 10 10 10 10 10 </DataArray>
</Cells>
<PointData  Vectors="f_37-0"> 
<DataArray  type="Float64"  Name="f_37-0"  NumberOfComponents="3" format="ascii">4.6305273079428791e-02 -2.7826850543611420e-02 0.0000000000000000e+00  -2.8071921223236044e-03 6.6632822610135476e-04 -6.8733686754957210e-02  8.9924099898990945e-02 -2.6817449810332447e-02 0.0000000000000000e+00  -9.9728530287879181e-04 -9.6453387240656230e-04 -1.2234553813839986e-01  5.6268476615886603e-02 1.1960760460460860e-02 0.0000000000000000e+00  2.6846413718023134e-02 4.5307459419269495e-02 0.0000000000000000e+00  -1.6247617246075558e-02 5.5430645439701630e-02 0.0000000000000000e+00  -4.1861570719525412e-02 3.0255088405387851e-02 0.0000000000000000e+00  -5.8409583412303449e-02 -1.2704608465290096e-02 0.0000000000000000e+00  -2.9263959294069938e-02 -4.0091742467696312e-02 0.0000000000000000e+00  1.5139122804926578e-02 -5.5933790413614778e-02 0.0000000000000000e+00  8.3312325772163034e-02 4.5997760542552481e-02 0.0000000000000000e+00  2.6747961089731338e-02 8.9548452354067470e-02 0.0000000000000000e+00  -4.6701891602689581e-02 8.5061918282740887e-02 0.0000000000000000e+00  -8.9206893140280644e-02 2.5503991520495921e-02 0.0000000000000000e+00  -8.5098766233936612e-02 -4.9133524779175777e-02 0.0000000000000000e+00  -2.5329210004092446e-02 -8.9413854178221785e-02 0.0000000000000000e+00  4.7137697583211971e-02 -8.5154010606441233e-02 0.0000000000000000e+00  4.4460654114558643e-02 7.0860158597968034e-03 -5.6507163375217273e-02  1.9495021053725838e-02 2.6640963582763025e-02 -8.8678633993792486e-02  8.9711872905501783e-02 4.1978167267466976e-03 -5.3541181764407038e-02  6.0029104830363139e-02 2.9165253900717631e-02 -1.0254904497575255e-01  2.8570085290049986e-02 3.5157919846204817e-02 -4.7602434849884627e-02  -1.0418167795936373e-02 2.6697598081943580e-02 -7.5274053082142162e-02  -1.1376086008803302e-02 4.6890527888289561e-02 -5.3903856073309851e-02  -3.4747633446451959e-02 1.6847621734985919e-02 -8.2744082057834206e-02  -4.0781405059537687e-02 2.7919969222492649e-02 -4.5511072667914196e-02  -3.2653865158825811e-02 -1.0129797268660487e-02 -8.9107414373071223e-02  -4.5314183405578232e-02 -1.3274787088979756e-02 -5.1511058754831293e-02  -1.5344876090824570e-02 -2.7104191526189911e-02 -8.6597822669849681e-02  -2.0166734361591328e-02 -4.1065234628437926e-02 -4.5783275869162601e-02  1.4872490957351580e-02 -2.9750790233210166e-02 -7.5296015005393555e-02  9.4563247028035587e-03 -5.1660092795056477e-02 -5.3855733382617635e-02  3.2775091952315358e-02 -1.5063026228008120e-02 -8.1080469461310214e-02  3.5802064439616713e-02 -3.1021917909784105e-02 -4.8854887140104601e-02  3.3902795798609532e-02 6.5590646133292093e-03 -8.4325674652965962e-02  6.3485009384057295e-02 6.8070584418956026e-02 -5.4469230799684153e-02  2.1728874041216893e-02 6.1492569596179221e-02 -1.0406456401137706e-01  -4.2998650692791527e-03 9.0804028835325790e-02 -5.3861499359132148e-02  -2.8552638295239220e-02 6.1211583810620813e-02 -1.0293930144678984e-01  -6.6001461978424797e-02 6.1159968563551853e-02 -5.3723573678130403e-02  -6.1660881428637203e-02 2.1377961382991202e-02 -1.0211262761909952e-01  -9.1221166453128388e-02 -3.8727016685448806e-03 -5.3783255107103287e-02  -5.9720083415545286e-02 -2.8715909241736469e-02 -1.0302974047444302e-01  -6.1480720557104490e-02 -6.7359090880186698e-02 -5.4066028433522026e-02  -2.1341938683549416e-02 -6.0466159867004841e-02 -1.0367350900728858e-01  3.9712625980343683e-03 -9.2975139828006814e-02 -5.4114271169944460e-02  2.8492383045827081e-02 -6.2629305873166785e-02 -1.0458741811392160e-01  6.7199079962966243e-02 -6.2942914109532927e-02 -5.4264978327500706e-02  6.0426183808506263e-02 -2.1813780160443396e-02 -1.0392835912564605e-01  -8.2151344641795854e-02 -4.7898299534312643e-03 0.0000000000000000e+00  -5.9394079385271380e-02 5.2761474167524705e-02 0.0000000000000000e+00  -4.9356528764156055e-03 7.8287477641970069e-02 0.0000000000000000e+00  5.4206606750840852e-02 6.0040660492394336e-02 0.0000000000000000e+00  8.1270128047281828e-02 4.4053962166142897e-03 0.0000000000000000e+00  6.0149476839519295e-02 -5.4148639025081040e-02 0.0000000000000000e+00  4.9376058939883177e-03 -7.8404329500318892e-02 0.0000000000000000e+00  -5.3203007879135490e-02 -5.8408206179278943e-02 0.0000000000000000e+00  </DataArray> 
</PointData> 
</Piece>
</UnstructuredGrid>
</VTKFile>