<?xml version="1.0"?>
<VTKFile type="UnstructuredGrid"  version="0.1"  >
<UnstructuredGrid>
<Piece  NumberOfPoints="58" NumberOfCells="148">
<Points>
<DataArray  type="Float64"  NumberOfComponents="3"  format="ascii">0.4023249999999999 0 0  0 0 -0.8046499999999999  0.266805 0 0  0 0 -0.6691299999999999  0.2844867357408777 0.2844867357408777 0  2.775557561562891e-17 0.4023249999999999 0  -0.2844867357408777 0.2844867357408777 0  -0.4023249999999999 2.775557561562891e-17 0  -0.2844867357408777 -0.2844867357408777 0  -2.775557561562891e-17 -0.4023249999999999 0  0.2844867357408777 -0.2844867357408777 0  0.1886596247544768 0.1886596247544768 0  2.775557561562891e-17 0.266805 0  -0.1886596247544767 0.1886596247544768 0  -0.266805 8.326672684688674e-17 0  -0.1886596247544768 -0.1886596247544767 0  -1.387778780781446e-16 -0.266805 0  0.1886596247544766 -0.1886596247544769 0  0.3686082568662342 0 -0.3224491190562394  0.2536108874396318 0 -0.6246500569025265  0.2466044134321161 0 -0.2554056152626437  0.1766587270840894 0 -0.5014405794480644  0.2606453980314651 0.2606453980314651 -0.3224491190562516  0.1793299782912967 0.1793299782912967 -0.6246500569025382  2.542952674080888e-17 0.3686082568662342 -0.3224491190562394  1.749609435972772e-17 0.2536108874396318 -0.6246500569025265  -0.2606453980314651 0.2606453980314651 -0.3224491190562516  -0.1793299782912967 0.1793299782912967 -0.6246500569025382  -0.3686082568662342 2.542952674080888e-17 -0.3224491190562394  -0.2536108874396318 1.749609435972772e-17 -0.6246500569025265  -0.2606453980314651 -0.2606453980314651 -0.3224491190562516  -0.1793299782912967 -0.1793299782912967 -0.6246500569025382  -2.542952674080888e-17 -0.3686082568662342 -0.3224491190562394  -1.749609435972772e-17 -0.2536108874396318 -0.6246500569025265  0.2606453980314651 -0.2606453980314651 -0.3224491190562516  0.1793299782912967 -0.1793299782912967 -0.6246500569025382  0.1743756530083801 0.17437565300838 -0.2554056152626451  0.1249165838769436 0.1249165838769436 -0.5014405794480633  2.565411984094344e-17 0.2466044134321161 -0.2554056152626437  1.837770902997769e-17 0.1766587270840894 -0.5014405794480644  -0.1743756530083802 0.1743756530083803 -0.2554056152626436  -0.1249165838769431 0.1249165838769432 -0.5014405794480646  -0.2466044134321161 7.696235952283031e-17 -0.2554056152626437  -0.1766587270840894 5.513312708993305e-17 -0.5014405794480644  -0.1743756530083802 -0.17437565300838 -0.2554056152626445  -0.1249165838769429 -0.1249165838769428 -0.5014405794480657  -1.282705992047172e-16 -0.2466044134321161 -0.2554056152626437  -9.188854514988842e-17 -0.1766587270840894 -0.5014405794480644  0.1743756530083804 -0.1743756530083806 -0.2554056152626407  0.1249165838769432 -0.1249165838769434 -0.5014405794480641  -0.2855690901238386 -0.1182865901238386 0  -0.2855690901238385 0.1182865901238386 0  -0.1182865901238386 0.2855690901238386 -0  0.1182865901238386 0.2855690901238386 0  0.2855690901238386 0.1182865901238386 0  0.2855690901238386 -0.1182865901238386 0  0.1182865901238385 -0.2855690901238386 0  -0.1182865901238387 -0.2855690901238386 0  </DataArray>
</Points>
<Cells>
<DataArray  type="UInt32"  Name="connectivity"  format="ascii">5 6 24 52  8 9 32 57  7 8 28 50  9 10 32 56  0 4 18 54  6 7 28 51  0 10 18 55  4 5 24 53  10 18 34 55  4 18 22 54  4 22 24 53  8 28 30 50  30 42 44 50  22 23 37 39  21 22 23 37  30 31 43 45  30 31 45 47  20 34 48 55  22 36 38 53  20 22 36 54  28 40 42 51  21 34 35 49  33 34 47 49  16 17 46 56  15 16 46 57  25 26 39 41  22 24 38 53  18 20 34 55  18 20 22 54  28 30 42 50  29 30 31 43  22 23 25 39  19 21 22 23  30 31 33 47  28 29 41 43  15 42 44 50  9 32 46 57  0 18 20 55  5 24 38 52  7 28 42 51  5 24 38 53  0 18 20 54  9 32 46 56  7 28 42 50  33 34 35 49  9 16 46 57  9 16 46 56  12 36 38 53  2 11 20 54  11 12 36 53  14 15 42 50  14 40 42 51  13 14 40 51  12 13 38 52  2 17 48 55  11 20 36 54  2 20 48 55  25 26 27 41  8 30 44 50  10 34 48 55  4 22 36 54  4 22 36 53  27 28 29 41  18 21 34 35  26 27 28 41  18 19 21 35  28 29 30 43  24 25 26 39  22 24 25 39  30 32 33 47  18 19 21 22  32 33 34 47  0 2 20 54  0 2 20 55  7 14 42 50  7 14 42 51  5 12 38 52  5 12 38 53  30 43 44 45  30 44 45 47  22 36 37 39  21 22 36 37  34 47 48 49  21 34 48 49  1 3 31 33  1 3 23 25  1 3 19 23  1 3 29 31  8 15 44 50  30 42 43 44  26 39 40 41  22 36 38 39  20 21 22 36  20 21 34 48  4 11 36 54  4 11 36 53  6 13 40 51  10 17 48 55  3 31 43 45  3 23 37 39  3 31 45 47  3 21 23 37  28 41 42 43  32 44 46 47  1 3 27 29  1 3 33 35  1 3 19 35  1 3 25 27  32 46 47 48  28 40 41 42  24 38 39 40  30 32 44 47  3 33 47 49  3 21 35 49  26 28 40 41  28 30 42 43  24 26 39 40  22 24 38 39  32 34 47 48  18 20 21 22  18 20 21 34  3 29 41 43  3 25 39 41  3 29 31 43  3 23 25 39  3 31 33 47  3 19 21 23  3 33 35 49  3 27 29 41  3 25 27 41  3 19 21 35  6 24 26 40  10 32 34 48  8 30 32 44  6 26 28 40  6 28 40 51  8 15 44 46  8 15 46 57  8 32 44 46  8 32 46 57  10 17 46 56  10 17 46 48  10 32 46 56  10 32 46 48  6 13 38 52  6 13 38 40  6 24 38 52  6 24 38 40  </DataArray>
<DataArray  type="UInt32"  Name="offsets"  format="ascii">4 8 12 16 20 24 28 32 36 40 44 48 52 56 60 64 68 72 76 80 84 88 92 96 100 104 108 112 116 120 124 128 132 136 140 144 148 152 156 160 164 168 172 176 180 184 188 192 196 200 204 208 212 216 220 224 228 232 236 240 244 248 252 256 260 264 268 272 276 280 284 288 292 296 300 304 308 312 316 320 324 328 332 336 340 344 348 352 356 360 364 368 372 376 380 384 388 392 396 400 404 408 412 416 420 424 428 432 436 440 444 448 452 456 460 464 468 472 476 480 484 488 492 496 500 504 508 512 516 520 524 528 532 536 540 544 548 552 556 560 564 568 572 576 580 584 588 592 </DataArray>
<DataArray  type="UInt8"  Name="types"  format="ascii">10 10 10 10 10 10 10 10 10 10 10 10 10 10 10 10 10 10 10 10 10 10 10 10 10 10 10 10 10 10 10 10 10 10 10 10 10 10 10 10 10 10 10 10 10 10 10 10 10 10 10 10 10 10 10 10 10 10 10 10 10 10 10 10 10 10 10 10 10 10 10 10 10 10 10 10 10 10 10 10 10 10 10 10 10 10 10 10 10 10 10 10 10 10 10 10 10 10 10 10 10 10 10 10 10 10 10 10 10 10 10 10 10 10 10 10 10 10 10 10 10 10 10 10 10 10 10 10 10 10 10 10 10 10 10 10 10 10 10 10 10 10 10 10 10 10 10 10 </DataArray>
</Cells>
<PointData  Vectors="f_37-0"> 
<DataArray  type="Float64"  Name="f_37-0"  NumberOfComponents="3" format="ascii">1.5178615895401719e-02 -7.7247798501444637e-03 0.0000000000000000e+00  -1.2970635566527419e-04 9.3141621863831515e-05 -1.1413934476496034e-02  2.4822871134856678e-02 -6.6740283435221242e-03 0.0000000000000000e+00  4.0089993854393336e-05 4.3918201087007589e-05 -1.3926000142918058e-02  1.7900850718681739e-02 6.4953996065616644e-03 0.0000000000000000e+00  7.9525646976947046e-03 1.5448347329901694e-02 0.0000000000000000e+00  -6.1673152879208014e-03 1.7760086319640857e-02 0.0000000000000000e+00  -1.5147989460148416e-02 7.9963334766302782e-03 0.0000000000000000e+00  -1.7847042635973410e-02 -6.6280351271329778e-03 0.0000000000000000e+00  -8.1033922246460926e-03 -1.4596384009224705e-02 0.0000000000000000e+00  5.7250917217583821e-03 -1.7526786869837989e-02 0.0000000000000000e+00  2.3494529299015941e-02 1.4048724328661458e-02 0.0000000000000000e+00  6.8718816470172174e-03 2.5044474320226048e-02 0.0000000000000000e+00  -1.3745269508541078e-02 2.4033249469684870e-02 0.0000000000000000e+00  -2.4969186310610340e-02 6.6989108772272628e-03 0.0000000000000000e+00  -2.3507875927157793e-02 -1.4817787827450283e-02 0.0000000000000000e+00  -6.3840307589310462e-03 -2.5116346064305378e-02 0.0000000000000000e+00  1.3688910704383082e-02 -2.3727065160800174e-02 0.0000000000000000e+00  1.2850647674086656e-02 1.9942329461392514e-03 -9.5339301889382812e-03  3.1177124163259068e-03 7.8938920086715249e-03 -1.3673394544034831e-02  2.4133598767170337e-02 9.5368391446451570e-04 -8.4994425519390945e-03  1.3828293213797698e-02 6.1471888357380556e-03 -1.4416297335600417e-02  8.2077033160135489e-03 1.0704354314969721e-02 -9.1407316797350226e-03  -3.2860810041262707e-03 7.9168207406932235e-03 -1.3762260288017766e-02  -2.1233354980503645e-03 1.3068538460841420e-02 -9.2961330543694983e-03  -8.6063163632601521e-03 2.7145029182340974e-03 -1.3669959879196064e-02  -1.0739353689895167e-02 7.1595148699168118e-03 -8.6116297211132065e-03  -7.7469371045141384e-03 -3.4932678319592450e-03 -1.3504146801231387e-02  -1.3455584660416136e-02 -2.3356277376065109e-03 -9.2231005067404219e-03  -2.9343344820896692e-03 -7.6048073663525445e-03 -1.3786537512248549e-02  -7.3370131885636160e-03 -1.0871597434074020e-02 -8.7820662178588627e-03  3.4383854625662895e-03 -7.9125396038062044e-03 -1.3747238278529172e-02  2.0726146601529423e-03 -1.3203915062011721e-02 -9.2401717713363352e-03  8.7725513712683251e-03 -2.8564142626210627e-03 -1.4026280359195622e-02  1.0503697799561095e-02 -7.7274100238156696e-03 -9.1338557398306722e-03  7.7858948017342743e-03 3.2845472831589100e-03 -1.3846271288227123e-02  1.7073103520186882e-02 1.8028591122777844e-02 -8.8751203431333796e-03  6.0066825057593842e-03 1.4178453725883809e-02 -1.4913765504693815e-02  -8.1587726455133907e-04 2.4466174165474499e-02 -8.6138530807912794e-03  -5.6418546971820221e-03 1.4086522063470748e-02 -1.4663403679799141e-02  -1.7239423637041843e-02 1.6307637303701245e-02 -8.5120929930175213e-03  -1.3836967137288277e-02 5.1660325885237715e-03 -1.4531687457031877e-02  -2.4614883900059989e-02 -6.7751098661963309e-04 -8.8742853930985580e-03  -1.4050031668822698e-02 -6.1569171332243149e-03 -1.4613821916608106e-02  -1.7069238577109239e-02 -1.7722956366973564e-02 -8.8945864859799346e-03  -5.8485441163220134e-03 -1.3979410980901993e-02 -1.5266013212629343e-02  5.0341282057488892e-04 -2.4999742603151357e-02 -8.9550265524501391e-03  5.7874890013463812e-03 -1.4265641849382239e-02 -1.4966763076222519e-02  1.7678378285079146e-02 -1.6580186246213362e-02 -8.9027229009415454e-03  1.3918842883061925e-02 -5.6244936456160653e-03 -1.5233914752872814e-02  -2.2894537268266745e-02 -2.3356953410436370e-03 0.0000000000000000e+00  -1.7426637435619622e-02 1.4147267824025173e-02 0.0000000000000000e+00  -2.4156951529265328e-03 2.2708334018730781e-02 0.0000000000000000e+00  1.4370894148946715e-02 1.7879476447418746e-02 0.0000000000000000e+00  2.2581027394329097e-02 2.4556541884417243e-03 0.0000000000000000e+00  1.7593774221267681e-02 -1.4174497250815359e-02 0.0000000000000000e+00  2.3130277740772676e-03 -2.2235846484921520e-02 0.0000000000000000e+00  -1.4352098900354760e-02 -1.7485247213063729e-02 0.0000000000000000e+00  </DataArray> 
</PointData> 
</Piece>
</UnstructuredGrid>
</VTKFile>