<?xml version="1.0"?>
<VTKFile type="UnstructuredGrid"  version="0.1"  >
<UnstructuredGrid>
<Piece  NumberOfPoints="58" NumberOfCells="148">
<Points>
<DataArray  type="Float64"  NumberOfComponents="3"  format="ascii">0.4023249999999999 0 0  0 0 -0.8046499999999999  0.266805 0 0  0 0 -0.6691299999999999  0.2844867357408777 0.2844867357408777 0  2.775557561562891e-17 0.4023249999999999 0  -0.2844867357408777 0.2844867357408777 0  -0.4023249999999999 2.775557561562891e-17 0  -0.2844867357408777 -0.2844867357408777 0  -2.775557561562891e-17 -0.4023249999999999 0  0.2844867357408777 -0.2844867357408777 0  0.1886596247544768 0.1886596247544768 0  2.775557561562891e-17 0.266805 0  -0.1886596247544767 0.1886596247544768 0  -0.266805 8.326672684688674e-17 0  -0.1886596247544768 -0.1886596247544767 0  -1.387778780781446e-16 -0.266805 0  0.1886596247544766 -0.1886596247544769 0  0.3686082568662342 0 -0.3224491190562394  0.2536108874396318 0 -0.6246500569025265  0.2466044134321161 0 -0.2554056152626437  0.1766587270840894 0 -0.5014405794480644  0.2606453980314651 0.2606453980314651 -0.3224491190562516  0.1793299782912967 0.1793299782912967 -0.6246500569025382  2.542952674080888e-17 0.3686082568662342 -0.3224491190562394  1.749609435972772e-17 0.2536108874396318 -0.6246500569025265  -0.2606453980314651 0.2606453980314651 -0.3224491190562516  -0.1793299782912967 0.1793299782912967 -0.6246500569025382  -0.3686082568662342 2.542952674080888e-17 -0.3224491190562394  -0.2536108874396318 1.749609435972772e-17 -0.6246500569025265  -0.2606453980314651 -0.2606453980314651 -0.3224491190562516  -0.1793299782912967 -0.1793299782912967 -0.6246500569025382  -2.542952674080888e-17 -0.3686082568662342 -0.3224491190562394  -1.749609435972772e-17 -0.2536108874396318 -0.6246500569025265  0.2606453980314651 -0.2606453980314651 -0.3224491190562516  0.1793299782912967 -0.1793299782912967 -0.6246500569025382  0.1743756530083801 0.17437565300838 -0.2554056152626451  0.1249165838769436 0.1249165838769436 -0.5014405794480633  2.565411984094344e-17 0.2466044134321161 -0.2554056152626437  1.837770902997769e-17 0.1766587270840894 -0.5014405794480644  -0.1743756530083802 0.1743756530083803 -0.2554056152626436  -0.1249165838769431 0.1249165838769432 -0.5014405794480646  -0.2466044134321161 7.696235952283031e-17 -0.2554056152626437  -0.1766587270840894 5.513312708993305e-17 -0.5014405794480644  -0.1743756530083802 -0.17437565300838 -0.2554056152626445  -0.1249165838769429 -0.1249165838769428 -0.5014405794480657  -1.282705992047172e-16 -0.2466044134321161 -0.2554056152626437  -9.188854514988842e-17 -0.1766587270840894 -0.5014405794480644  0.1743756530083804 -0.1743756530083806 -0.2554056152626407  0.1249165838769432 -0.1249165838769434 -0.5014405794480641  -0.2855690901238386 -0.1182865901238386 0  -0.2855690901238385 0.1182865901238386 0  -0.1182865901238386 0.2855690901238386 -0  0.1182865901238386 0.2855690901238386 0  0.2855690901238386 0.1182865901238386 0  0.2855690901238386 -0.1182865901238386 0  0.1182865901238385 -0.2855690901238386 0  -0.1182865901238387 -0.2855690901238386 0  </DataArray>
</Points>
<Cells>
<DataArray  type="UInt32"  Name="connectivity"  format="ascii">5 6 24 52  8 9 32 57  7 8 28 50  9 10 32 56  0 4 18 54  6 7 28 51  0 10 18 55  4 5 24 53  10 18 34 55  4 18 22 54  4 22 24 53  8 28 30 50  30 42 44 50  22 23 37 39  21 22 23 37  30 31 43 45  30 31 45 47  20 34 48 55  22 36 38 53  20 22 36 54  28 40 42 51  21 34 35 49  33 34 47 49  16 17 46 56  15 16 46 57  25 26 39 41  22 24 38 53  18 20 34 55  18 20 22 54  28 30 42 50  29 30 31 43  22 23 25 39  19 21 22 23  30 31 33 47  28 29 41 43  15 42 44 50  9 32 46 57  0 18 20 55  5 24 38 52  7 28 42 51  5 24 38 53  0 18 20 54  9 32 46 56  7 28 42 50  33 34 35 49  9 16 46 57  9 16 46 56  12 36 38 53  2 11 20 54  11 12 36 53  14 15 42 50  14 40 42 51  13 14 40 51  12 13 38 52  2 17 48 55  11 20 36 54  2 20 48 55  25 26 27 41  8 30 44 50  10 34 48 55  4 22 36 54  4 22 36 53  27 28 29 41  18 21 34 35  26 27 28 41  18 19 21 35  28 29 30 43  24 25 26 39  22 24 25 39  30 32 33 47  18 19 21 22  32 33 34 47  0 2 20 54  0 2 20 55  7 14 42 50  7 14 42 51  5 12 38 52  5 12 38 53  30 43 44 45  30 44 45 47  22 36 37 39  21 22 36 37  34 47 48 49  21 34 48 49  1 3 31 33  1 3 23 25  1 3 19 23  1 3 29 31  8 15 44 50  30 42 43 44  26 39 40 41  22 36 38 39  20 21 22 36  20 21 34 48  4 11 36 54  4 11 36 53  6 13 40 51  10 17 48 55  3 31 43 45  3 23 37 39  3 31 45 47  3 21 23 37  28 41 42 43  32 44 46 47  1 3 27 29  1 3 33 35  1 3 19 35  1 3 25 27  32 46 47 48  28 40 41 42  24 38 39 40  30 32 44 47  3 33 47 49  3 21 35 49  26 28 40 41  28 30 42 43  24 26 39 40  22 24 38 39  32 34 47 48  18 20 21 22  18 20 21 34  3 29 41 43  3 25 39 41  3 29 31 43  3 23 25 39  3 31 33 47  3 19 21 23  3 33 35 49  3 27 29 41  3 25 27 41  3 19 21 35  6 24 26 40  10 32 34 48  8 30 32 44  6 26 28 40  6 28 40 51  8 15 44 46  8 15 46 57  8 32 44 46  8 32 46 57  10 17 46 56  10 17 46 48  10 32 46 56  10 32 46 48  6 13 38 52  6 13 38 40  6 24 38 52  6 24 38 40  </DataArray>
<DataArray  type="UInt32"  Name="offsets"  format="ascii">4 8 12 16 20 24 28 32 36 40 44 48 52 56 60 64 68 72 76 80 84 88 92 96 100 104 108 112 116 120 124 128 132 136 140 144 148 152 156 160 164 168 172 176 180 184 188 192 196 200 204 208 212 216 220 224 228 232 236 240 244 248 252 256 260 264 268 272 276 280 284 288 292 296 300 304 308 312 316 320 324 328 332 336 340 344 348 352 356 360 364 368 372 376 380 384 388 392 396 400 404 408 412 416 420 424 428 432 436 440 444 448 452 456 460 464 468 472 476 480 484 488 492 496 500 504 508 512 516 520 524 528 532 536 540 544 548 552 556 560 564 568 572 576 580 584 588 592 </DataArray>
<DataArray  type="UInt8"  Name="types"  format="ascii">10 10 10 10 10 10 10 10 10 10 10 10 10 10 10 10 10 10 10 10 10 10 10 10 10 10 10 10 10 10 10 10 10 10 10 10 10 10 10 10 10 10 10 10 10 10 10 10 10 10 10 10 10 10 10 10 10 10 10 10 10 10 10 10 10 10 10 10 10 10 10 10 10 10 10 10 10 10 10 10 10 10 10 10 10 10 10 10 10 10 10 10 10 10 10 10 10 10 10 10 10 10 10 10 10 10 10 10 10 10 10 10 10 10 10 10 10 10 10 10 10 10 10 10 10 10 10 10 10 10 10 10 10 10 10 10 10 10 10 10 10 10 10 10 10 10 10 10 </DataArray>
</Cells>
<PointData  Vectors="f_37-0"> 
<DataArray  type="Float64"  Name="f_37-0"  NumberOfComponents="3" format="ascii">3.5510389472264516e-02 -1.8932932813003341e-02 0.0000000000000000e+00  -6.8909689059497108e-04 6.4118142522860894e-04 -4.9746688274537348e-02  6.1632554463213265e-02 -1.7056682540251767e-02 0.0000000000000000e+00  -1.6096204978582247e-04 -1.8534834946369377e-04 -6.8898901086480030e-02  4.1792075380200057e-02 1.3334880556108783e-02 0.0000000000000000e+00  1.8823231451860753e-02 3.5897480723640199e-02 0.0000000000000000e+00  -1.3296299392830790e-02 4.0956952315914688e-02 0.0000000000000000e+00  -3.4767533612633128e-02 2.0064059364586176e-02 0.0000000000000000e+00  -4.1729939572826558e-02 -1.3645646191514605e-02 0.0000000000000000e+00  -1.9646349406766999e-02 -3.3455135685474369e-02 0.0000000000000000e+00  1.2585657337353657e-02 -4.0825609897564272e-02 0.0000000000000000e+00  5.7071150517006355e-02 3.3024964147415424e-02 0.0000000000000000e+00  1.7376970885365509e-02 6.1728988484092348e-02 0.0000000000000000e+00  -3.3138769998816250e-02 5.8222650589648532e-02 0.0000000000000000e+00  -6.1504847418108806e-02 1.6734407794401697e-02 0.0000000000000000e+00  -5.7980994548929764e-02 -3.4889537741202556e-02 0.0000000000000000e+00  -1.6507599672237052e-02 -6.1606213604910351e-02 0.0000000000000000e+00  3.3155631115050425e-02 -5.7859123252809362e-02 0.0000000000000000e+00  3.1667246340837264e-02 5.6872708058890832e-03 -3.3576709862203603e-02  1.1025478358125586e-02 2.2015980642855846e-02 -5.3841188124877599e-02  6.1183247215188412e-02 3.2018827370908979e-03 -3.1821559070301993e-02  4.0055199486986326e-02 1.9250055172458910e-02 -6.0329909455323814e-02  1.9483561584052768e-02 2.6456335687129566e-02 -3.0571748021378815e-02  -8.4497429770496561e-03 2.2384225645842065e-02 -5.1051741767028758e-02  -7.0881503507876469e-03 3.2559816847584910e-02 -3.2584286207561736e-02  -2.4978392148316104e-02 1.0406358850556517e-02 -5.2883514643236422e-02  -2.8366037454960826e-02 1.7267165409311735e-02 -2.9259636723738800e-02  -2.3912888985721775e-02 -8.7911662462855315e-03 -5.3967384460625795e-02  -3.2699942733458436e-02 -7.8614726506178925e-03 -3.1802731486218150e-02  -1.0261055737795437e-02 -2.1266061906827095e-02 -5.3697565968587525e-02  -1.6153828331176286e-02 -2.8393628779128779e-02 -2.9328041518847384e-02  9.9018414120006400e-03 -2.2956838402139641e-02 -5.0742256384484596e-02  6.8879813494969076e-03 -3.3829522372001687e-02 -3.2558622464499344e-02  2.4944034767395273e-02 -1.0356588779977461e-02 -5.3188341723535301e-02  2.6823646287783335e-02 -1.9247841820290205e-02 -3.0889808287073293e-02  2.3927664109385020e-02 7.7308057660198147e-03 -5.3323084176879039e-02  4.2884652872300727e-02 4.6449091602944970e-02 -3.2764383390255593e-02  1.5263209044311972e-02 4.1387716536911368e-02 -6.1322199042331202e-02  -2.9518264043069541e-03 6.2112975791935518e-02 -3.2097349653792892e-02  -1.8375890674144683e-02 4.0745702901778334e-02 -6.0726410802429666e-02  -4.5043761716477636e-02 4.1259922325682846e-02 -3.1932979705363448e-02  -4.1006239365761886e-02 1.4291522544929292e-02 -6.0255174638148688e-02  -6.2319748615742153e-02 -2.7813006817900025e-03 -3.2354231499111506e-02  -4.0084308563698767e-02 -1.9273027416447212e-02 -6.0702931360718075e-02  -4.2109794683335248e-02 -4.5755445456912180e-02 -3.2596378029501008e-02  -1.4887334228799048e-02 -4.0516334135609601e-02 -6.1601464651185017e-02  2.7243054031902145e-03 -6.3354076827852879e-02 -3.2539960351207368e-02  1.8504042445064688e-02 -4.1330618050925777e-02 -6.1605505342317894e-02  4.5934783519158431e-02 -4.2231390634860290e-02 -3.2647771688035634e-02  4.0605948175731460e-02 -1.4688008685210288e-02 -6.1635275949179426e-02  -5.6111757399692902e-02 -4.5440604849595794e-03 0.0000000000000000e+00  -4.1435681750038429e-02 3.5345510281011780e-02 0.0000000000000000e+00  -4.7478492712925069e-03 5.4436072575868445e-02 0.0000000000000000e+00  3.6136392554343491e-02 4.2561301805999083e-02 0.0000000000000000e+00  5.5319057366821085e-02 4.4645951521843615e-03 0.0000000000000000e+00  4.2141303877461053e-02 -3.5842117274185556e-02 0.0000000000000000e+00  4.5833736948218363e-03 -5.3880017644744968e-02 0.0000000000000000e+00  -3.5666853462752168e-02 -4.1449235883620442e-02 0.0000000000000000e+00  </DataArray> 
</PointData> 
</Piece>
</UnstructuredGrid>
</VTKFile>