<?xml version="1.0"?>
<VTKFile type="UnstructuredGrid"  version="0.1"  >
<UnstructuredGrid>
<Piece  NumberOfPoints="58" NumberOfCells="148">
<Points>
<DataArray  type="Float64"  NumberOfComponents="3"  format="ascii">0.4023249999999999 0 0  0 0 -0.8046499999999999  0.266805 0 0  0 0 -0.6691299999999999  0.2844867357408777 0.2844867357408777 0  2.775557561562891e-17 0.4023249999999999 0  -0.2844867357408777 0.2844867357408777 0  -0.4023249999999999 2.775557561562891e-17 0  -0.2844867357408777 -0.2844867357408777 0  -2.775557561562891e-17 -0.4023249999999999 0  0.2844867357408777 -0.2844867357408777 0  0.1886596247544768 0.1886596247544768 0  2.775557561562891e-17 0.266805 0  -0.1886596247544767 0.1886596247544768 0  -0.266805 8.326672684688674e-17 0  -0.1886596247544768 -0.1886596247544767 0  -1.387778780781446e-16 -0.266805 0  0.1886596247544766 -0.1886596247544769 0  0.3686082568662342 0 -0.3224491190562394  0.2536108874396318 0 -0.6246500569025265  0.2466044134321161 0 -0.2554056152626437  0.1766587270840894 0 -0.5014405794480644  0.2606453980314651 0.2606453980314651 -0.3224491190562516  0.1793299782912967 0.1793299782912967 -0.6246500569025382  2.542952674080888e-17 0.3686082568662342 -0.3224491190562394  1.749609435972772e-17 0.2536108874396318 -0.6246500569025265  -0.2606453980314651 0.2606453980314651 -0.3224491190562516  -0.1793299782912967 0.1793299782912967 -0.6246500569025382  -0.3686082568662342 2.542952674080888e-17 -0.3224491190562394  -0.2536108874396318 1.749609435972772e-17 -0.6246500569025265  -0.2606453980314651 -0.2606453980314651 -0.3224491190562516  -0.1793299782912967 -0.1793299782912967 -0.6246500569025382  -2.542952674080888e-17 -0.3686082568662342 -0.3224491190562394  -1.749609435972772e-17 -0.2536108874396318 -0.6246500569025265  0.2606453980314651 -0.2606453980314651 -0.3224491190562516  0.1793299782912967 -0.1793299782912967 -0.6246500569025382  0.1743756530083801 0.17437565300838 -0.2554056152626451  0.1249165838769436 0.1249165838769436 -0.5014405794480633  2.565411984094344e-17 0.2466044134321161 -0.2554056152626437  1.837770902997769e-17 0.1766587270840894 -0.5014405794480644  -0.1743756530083802 0.1743756530083803 -0.2554056152626436  -0.1249165838769431 0.1249165838769432 -0.5014405794480646  -0.2466044134321161 7.696235952283031e-17 -0.2554056152626437  -0.1766587270840894 5.513312708993305e-17 -0.5014405794480644  -0.1743756530083802 -0.17437565300838 -0.2554056152626445  -0.1249165838769429 -0.1249165838769428 -0.5014405794480657  -1.282705992047172e-16 -0.2466044134321161 -0.2554056152626437  -9.188854514988842e-17 -0.1766587270840894 -0.5014405794480644  0.1743756530083804 -0.1743756530083806 -0.2554056152626407  0.1249165838769432 -0.1249165838769434 -0.5014405794480641  -0.2855690901238386 -0.1182865901238386 0  -0.2855690901238385 0.1182865901238386 0  -0.1182865901238386 0.2855690901238386 -0  0.1182865901238386 0.2855690901238386 0  0.2855690901238386 0.1182865901238386 0  0.2855690901238386 -0.1182865901238386 0  0.1182865901238385 -0.2855690901238386 0  -0.1182865901238387 -0.2855690901238386 0  </DataArray>
</Points>
<Cells>
<DataArray  type="UInt32"  Name="connectivity"  format="ascii">5 6 24 52  8 9 32 57  7 8 28 50  9 10 32 56  0 4 18 54  6 7 28 51  0 10 18 55  4 5 24 53  10 18 34 55  4 18 22 54  4 22 24 53  8 28 30 50  30 42 44 50  22 23 37 39  21 22 23 37  30 31 43 45  30 31 45 47  20 34 48 55  22 36 38 53  20 22 36 54  28 40 42 51  21 34 35 49  33 34 47 49  16 17 46 56  15 16 46 57  25 26 39 41  22 24 38 53  18 20 34 55  18 20 22 54  28 30 42 50  29 30 31 43  22 23 25 39  19 21 22 23  30 31 33 47  28 29 41 43  15 42 44 50  9 32 46 57  0 18 20 55  5 24 38 52  7 28 42 51  5 24 38 53  0 18 20 54  9 32 46 56  7 28 42 50  33 34 35 49  9 16 46 57  9 16 46 56  12 36 38 53  2 11 20 54  11 12 36 53  14 15 42 50  14 40 42 51  13 14 40 51  12 13 38 52  2 17 48 55  11 20 36 54  2 20 48 55  25 26 27 41  8 30 44 50  10 34 48 55  4 22 36 54  4 22 36 53  27 28 29 41  18 21 34 35  26 27 28 41  18 19 21 35  28 29 30 43  24 25 26 39  22 24 25 39  30 32 33 47  18 19 21 22  32 33 34 47  0 2 20 54  0 2 20 55  7 14 42 50  7 14 42 51  5 12 38 52  5 12 38 53  30 43 44 45  30 44 45 47  22 36 37 39  21 22 36 37  34 47 48 49  21 34 48 49  1 3 31 33  1 3 23 25  1 3 19 23  1 3 29 31  8 15 44 50  30 42 43 44  26 39 40 41  22 36 38 39  20 21 22 36  20 21 34 48  4 11 36 54  4 11 36 53  6 13 40 51  10 17 48 55  3 31 43 45  3 23 37 39  3 31 45 47  3 21 23 37  28 41 42 43  32 44 46 47  1 3 27 29  1 3 33 35  1 3 19 35  1 3 25 27  32 46 47 48  28 40 41 42  24 38 39 40  30 32 44 47  3 33 47 49  3 21 35 49  26 28 40 41  28 30 42 43  24 26 39 40  22 24 38 39  32 34 47 48  18 20 21 22  18 20 21 34  3 29 41 43  3 25 39 41  3 29 31 43  3 23 25 39  3 31 33 47  3 19 21 23  3 33 35 49  3 27 29 41  3 25 27 41  3 19 21 35  6 24 26 40  10 32 34 48  8 30 32 44  6 26 28 40  6 28 40 51  8 15 44 46  8 15 46 57  8 32 44 46  8 32 46 57  10 17 46 56  10 17 46 48  10 32 46 56  10 32 46 48  6 13 38 52  6 13 38 40  6 24 38 52  6 24 38 40  </DataArray>
<DataArray  type="UInt32"  Name="offsets"  format="ascii">4 8 12 16 20 24 28 32 36 40 44 48 52 56 60 64 68 72 76 80 84 88 92 96 100 104 108 112 116 120 124 128 132 136 140 144 148 152 156 160 164 168 172 176 180 184 188 192 196 200 204 208 212 216 220 224 228 232 236 240 244 248 252 256 260 264 268 272 276 280 284 288 292 296 300 304 308 312 316 320 324 328 332 336 340 344 348 352 356 360 364 368 372 376 380 384 388 392 396 400 404 408 412 416 420 424 428 432 436 440 444 448 452 456 460 464 468 472 476 480 484 488 492 496 500 504 508 512 516 520 524 528 532 536 540 544 548 552 556 560 564 568 572 576 580 584 588 592 </DataArray>
<DataArray  type="UInt8"  Name="types"  format="ascii">10 10 10 10 10 10 10 10 10 10 10 10 10 10 10 10 10 10 10 10 10 10 10 10 10 10 10 10 10 10 10 10 10 10 10 10 10 10 10 10 10 10 10 10 10 10 10 10 10 10 10 10 10 10 10 10 10 10 10 10 10 10 10 10 10 10 10 10 10 10 10 10 10 10 10 10 10 10 10 10 10 10 10 10 10 10 10 10 10 10 10 10 10 10 10 10 10 10 10 10 10 10 10 10 10 10 10 10 10 10 10 10 10 10 10 10 10 10 10 10 10 10 10 10 10 10 10 10 10 10 10 10 10 10 10 10 10 10 10 10 10 10 10 10 10 10 10 10 </DataArray>
</Cells>
<PointData  Vectors="f_37-0"> 
<DataArray  type="Float64"  Name="f_37-0"  NumberOfComponents="3" format="ascii">4.3411834344472974e-02 -2.4215636068844915e-02 0.0000000000000000e+00  -1.6859203924625954e-03 1.2890145484241451e-03 -6.2839311575855830e-02  7.9760964139157425e-02 -2.2752611483752992e-02 0.0000000000000000e+00  -6.1132369088580992e-04 -5.4842763169491544e-04 -1.0309813957328109e-01  5.1545468021079469e-02 1.4008211630758377e-02 0.0000000000000000e+00  2.3624764568406360e-02 4.3240626875353856e-02 0.0000000000000000e+00  -1.5882581649734818e-02 5.0459255732988456e-02 0.0000000000000000e+00  -4.0963145163973688e-02 2.6193893659894420e-02 0.0000000000000000e+00  -5.2436248835009497e-02 -1.4213455342536489e-02 0.0000000000000000e+00  -2.5227737845156559e-02 -3.9131099591878347e-02 0.0000000000000000e+00  1.5092696810657046e-02 -5.0674268324601521e-02 0.0000000000000000e+00  7.3559272756649058e-02 4.1750737396152628e-02 0.0000000000000000e+00  2.2922681206338804e-02 7.9642263521446224e-02 0.0000000000000000e+00  -4.2221487937083718e-02 7.5116670502581695e-02 0.0000000000000000e+00  -7.9289748284314676e-02 2.1922298273001434e-02 0.0000000000000000e+00  -7.5015544052499342e-02 -4.4312229385871538e-02 0.0000000000000000e+00  -2.1690717941600747e-02 -7.9390372089747391e-02 0.0000000000000000e+00  4.2468746722650649e-02 -7.4925650141553543e-02 0.0000000000000000e+00  4.0061247511819296e-02 7.2804754684484612e-03 -4.8059930882785776e-02  1.5712408265471260e-02 2.6415138262611295e-02 -7.6466806690314887e-02  7.9426666768681806e-02 4.4082232258377003e-03 -4.5655121194765780e-02  5.2996622451680610e-02 2.6151194184335105e-02 -8.7409020011644495e-02  2.4859711746658564e-02 3.2837497487657338e-02 -4.1815995878239663e-02  -1.0565579154678047e-02 2.6181073006970031e-02 -6.7703408360339570e-02  -1.0269658827068803e-02 4.1792258107812855e-02 -4.6240712384617494e-02  -3.2242272149105952e-02 1.4421434529556666e-02 -7.3078925518884744e-02  -3.6912221659595901e-02 2.3219075131930080e-02 -3.9996234916009656e-02  -3.0743481061148350e-02 -1.0399968069590738e-02 -7.7201637507004900e-02  -4.1017025527095873e-02 -1.1693409562544492e-02 -4.4485899497099787e-02  -1.3332181750134946e-02 -2.6127345945250163e-02 -7.5250314551401049e-02  -1.8741007976363504e-02 -3.7053908722381984e-02 -4.0190500422693426e-02  1.3812393136123390e-02 -2.7920871803679814e-02 -6.7515478274604801e-02  9.2843284744199006e-03 -4.4838821237711650e-02 -4.6137958532778196e-02  3.1224264261526115e-02 -1.3419696145696637e-02 -7.2340024839877184e-02  3.3560644085068425e-02 -2.5942697288822650e-02 -4.2614369463205432e-02  3.1124993846769068e-02 8.2558935773361514e-03 -7.3897062026116345e-02  5.5684764308281627e-02 6.0706470632524510e-02 -4.6657377839804628e-02  1.9119019729968607e-02 5.4774748980002924e-02 -8.8681062196145660e-02  -4.3144134152862772e-03 8.0548097491118756e-02 -4.5968565173049036e-02  -2.5406333252890056e-02 5.4032601437753368e-02 -8.7779229387765251e-02  -5.8876002340290709e-02 5.3664681245433429e-02 -4.5804146013299386e-02  -5.4710274559823878e-02 1.8596027490513718e-02 -8.7103061611339530e-02  -8.0802160822797620e-02 -3.9666251996306311e-03 -4.6032403587676136e-02  -5.2757761318463346e-02 -2.5844225027521584e-02 -8.7840577764006902e-02  -5.4160169685635653e-02 -5.9887578406239449e-02 -4.6334066365701629e-02  -1.8700523093061062e-02 -5.3638437674067931e-02 -8.8572932268761340e-02  4.0628717244481517e-03 -8.2284150282964194e-02 -4.6295736968380970e-02  2.5416552776851623e-02 -5.5059442969270012e-02 -8.9160115286984101e-02  5.9971284177431174e-02 -5.5079893531945659e-02 -4.6463693432964713e-02  5.3784062580678693e-02 -1.8887565533625545e-02 -8.8757144117749431e-02  -7.2617601148165678e-02 -5.1814573394544971e-03 0.0000000000000000e+00  -5.3032640388692355e-02 4.6059969041914783e-02 0.0000000000000000e+00  -5.3749656175411369e-03 6.9669286876322248e-02 0.0000000000000000e+00  4.7275112813223344e-02 5.4099815815267981e-02 0.0000000000000000e+00  7.1676611859171430e-02 4.9388479620186641e-03 0.0000000000000000e+00  5.3887900237625880e-02 -4.7051016610616635e-02 0.0000000000000000e+00  5.2955994941085334e-03 -6.9369478392920514e-02 0.0000000000000000e+00  -4.6395835313102964e-02 -5.2539233837972363e-02 0.0000000000000000e+00  </DataArray> 
</PointData> 
</Piece>
</UnstructuredGrid>
</VTKFile>