<?xml version="1.0"?>
<VTKFile type="UnstructuredGrid"  version="0.1"  >
<UnstructuredGrid>
<Piece  NumberOfPoints="58" NumberOfCells="148">
<Points>
<DataArray  type="Float64"  NumberOfComponents="3"  format="ascii">0.4023249999999999 0 0  0 0 -0.8046499999999999  0.266805 0 0  0 0 -0.6691299999999999  0.2844867357408777 0.2844867357408777 0  2.775557561562891e-17 0.4023249999999999 0  -0.2844867357408777 0.2844867357408777 0  -0.4023249999999999 2.775557561562891e-17 0  -0.2844867357408777 -0.2844867357408777 0  -2.775557561562891e-17 -0.4023249999999999 0  0.2844867357408777 -0.2844867357408777 0  0.1886596247544768 0.1886596247544768 0  2.775557561562891e-17 0.266805 0  -0.1886596247544767 0.1886596247544768 0  -0.266805 8.326672684688674e-17 0  -0.1886596247544768 -0.1886596247544767 0  -1.387778780781446e-16 -0.266805 0  0.1886596247544766 -0.1886596247544769 0  0.3686082568662342 0 -0.3224491190562394  0.2536108874396318 0 -0.6246500569025265  0.2466044134321161 0 -0.2554056152626437  0.1766587270840894 0 -0.5014405794480644  0.2606453980314651 0.2606453980314651 -0.3224491190562516  0.1793299782912967 0.1793299782912967 -0.6246500569025382  2.542952674080888e-17 0.3686082568662342 -0.3224491190562394  1.749609435972772e-17 0.2536108874396318 -0.6246500569025265  -0.2606453980314651 0.2606453980314651 -0.3224491190562516  -0.1793299782912967 0.1793299782912967 -0.6246500569025382  -0.3686082568662342 2.542952674080888e-17 -0.3224491190562394  -0.2536108874396318 1.749609435972772e-17 -0.6246500569025265  -0.2606453980314651 -0.2606453980314651 -0.3224491190562516  -0.1793299782912967 -0.1793299782912967 -0.6246500569025382  -2.542952674080888e-17 -0.3686082568662342 -0.3224491190562394  -1.749609435972772e-17 -0.2536108874396318 -0.6246500569025265  0.2606453980314651 -0.2606453980314651 -0.3224491190562516  0.1793299782912967 -0.1793299782912967 -0.6246500569025382  0.1743756530083801 0.17437565300838 -0.2554056152626451  0.1249165838769436 0.1249165838769436 -0.5014405794480633  2.565411984094344e-17 0.2466044134321161 -0.2554056152626437  1.837770902997769e-17 0.1766587270840894 -0.5014405794480644  -0.1743756530083802 0.1743756530083803 -0.2554056152626436  -0.1249165838769431 0.1249165838769432 -0.5014405794480646  -0.2466044134321161 7.696235952283031e-17 -0.2554056152626437  -0.1766587270840894 5.513312708993305e-17 -0.5014405794480644  -0.1743756530083802 -0.17437565300838 -0.2554056152626445  -0.1249165838769429 -0.1249165838769428 -0.5014405794480657  -1.282705992047172e-16 -0.2466044134321161 -0.2554056152626437  -9.188854514988842e-17 -0.1766587270840894 -0.5014405794480644  0.1743756530083804 -0.1743756530083806 -0.2554056152626407  0.1249165838769432 -0.1249165838769434 -0.5014405794480641  -0.2855690901238386 -0.1182865901238386 0  -0.2855690901238385 0.1182865901238386 0  -0.1182865901238386 0.2855690901238386 -0  0.1182865901238386 0.2855690901238386 0  0.2855690901238386 0.1182865901238386 0  0.2855690901238386 -0.1182865901238386 0  0.1182865901238385 -0.2855690901238386 0  -0.1182865901238387 -0.2855690901238386 0  </DataArray>
</Points>
<Cells>
<DataArray  type="UInt32"  Name="connectivity"  format="ascii">5 6 24 52  8 9 32 57  7 8 28 50  9 10 32 56  0 4 18 54  6 7 28 51  0 10 18 55  4 5 24 53  10 18 34 55  4 18 22 54  4 22 24 53  8 28 30 50  30 42 44 50  22 23 37 39  21 22 23 37  30 31 43 45  30 31 45 47  20 34 48 55  22 36 38 53  20 22 36 54  28 40 42 51  21 34 35 49  33 34 47 49  16 17 46 56  15 16 46 57  25 26 39 41  22 24 38 53  18 20 34 55  18 20 22 54  28 30 42 50  29 30 31 43  22 23 25 39  19 21 22 23  30 31 33 47  28 29 41 43  15 42 44 50  9 32 46 57  0 18 20 55  5 24 38 52  7 28 42 51  5 24 38 53  0 18 20 54  9 32 46 56  7 28 42 50  33 34 35 49  9 16 46 57  9 16 46 56  12 36 38 53  2 11 20 54  11 12 36 53  14 15 42 50  14 40 42 51  13 14 40 51  12 13 38 52  2 17 48 55  11 20 36 54  2 20 48 55  25 26 27 41  8 30 44 50  10 34 48 55  4 22 36 54  4 22 36 53  27 28 29 41  18 21 34 35  26 27 28 41  18 19 21 35  28 29 30 43  24 25 26 39  22 24 25 39  30 32 33 47  18 19 21 22  32 33 34 47  0 2 20 54  0 2 20 55  7 14 42 50  7 14 42 51  5 12 38 52  5 12 38 53  30 43 44 45  30 44 45 47  22 36 37 39  21 22 36 37  34 47 48 49  21 34 48 49  1 3 31 33  1 3 23 25  1 3 19 23  1 3 29 31  8 15 44 50  30 42 43 44  26 39 40 41  22 36 38 39  20 21 22 36  20 21 34 48  4 11 36 54  4 11 36 53  6 13 40 51  10 17 48 55  3 31 43 45  3 23 37 39  3 31 45 47  3 21 23 37  28 41 42 43  32 44 46 47  1 3 27 29  1 3 33 35  1 3 19 35  1 3 25 27  32 46 47 48  28 40 41 42  24 38 39 40  30 32 44 47  3 33 47 49  3 21 35 49  26 28 40 41  28 30 42 43  24 26 39 40  22 24 38 39  32 34 47 48  18 20 21 22  18 20 21 34  3 29 41 43  3 25 39 41  3 29 31 43  3 23 25 39  3 31 33 47  3 19 21 23  3 33 35 49  3 27 29 41  3 25 27 41  3 19 21 35  6 24 26 40  10 32 34 48  8 30 32 44  6 26 28 40  6 28 40 51  8 15 44 46  8 15 46 57  8 32 44 46  8 32 46 57  10 17 46 56  10 17 46 48  10 32 46 56  10 32 46 48  6 13 38 52  6 13 38 40  6 24 38 52  6 24 38 40  </DataArray>
<DataArray  type="UInt32"  Name="offsets"  format="ascii">4 8 12 16 20 24 28 32 36 40 44 48 52 56 60 64 68 72 76 80 84 88 92 96 100 104 108 112 116 120 124 128 132 136 140 144 148 152 156 160 164 168 172 176 180 184 188 192 196 200 204 208 212 216 220 224 228 232 236 240 244 248 252 256 260 264 268 272 276 280 284 288 292 296 300 304 308 312 316 320 324 328 332 336 340 344 348 352 356 360 364 368 372 376 380 384 388 392 396 400 404 408 412 416 420 424 428 432 436 440 444 448 452 456 460 464 468 472 476 480 484 488 492 496 500 504 508 512 516 520 524 528 532 536 540 544 548 552 556 560 564 568 572 576 580 584 588 592 </DataArray>
<DataArray  type="UInt8"  Name="types"  format="ascii">10 10 10 10 10 10 10 10 10 10 10 10 10 10 10 10 10 10 10 10 10 10 10 10 10 10 10 10 10 10 10 10 10 10 10 10 10 10 10 10 10 10 10 10 10 10 10 10 10 10 10 10 10 10 10 10 10 10 10 10 10 10 10 10 10 10 10 10 10 10 10 10 10 10 10 10 10 10 10 10 10 10 10 10 10 10 10 10 10 10 10 10 10 10 10 10 10 10 10 10 10 10 10 10 10 10 10 10 10 10 10 10 10 10 10 10 10 10 10 10 10 10 10 10 10 10 10 10 10 10 10 10 10 10 10 10 10 10 10 10 10 10 10 10 10 10 10 10 </DataArray>
</Cells>
<PointData  Vectors="f_37-0"> 
<DataArray  type="Float64"  Name="f_37-0"  NumberOfComponents="3" format="ascii">3.9606117609313887e-02 -2.1372569078082226e-02 0.0000000000000000e+00  -1.0387238906852489e-03 1.0289539698874371e-03 -5.7162910644740876e-02  7.0260485994441402e-02 -1.9630490320401168e-02 0.0000000000000000e+00  -3.3748469878124661e-04 -3.1481987668118602e-04 -8.5087623646250762e-02  4.6682604898289605e-02 1.4148895022886991e-02 0.0000000000000000e+00  2.1074452429411947e-02 3.9825759938803183e-02 0.0000000000000000e+00  -1.4719419602709912e-02 4.5634815502659069e-02 0.0000000000000000e+00  -3.8272435530216045e-02 2.2889455257158024e-02 0.0000000000000000e+00  -4.6914047100357861e-02 -1.4387438148953099e-02 0.0000000000000000e+00  -2.2186999735473657e-02 -3.6688883842747266e-02 0.0000000000000000e+00  1.4006101341853488e-02 -4.5650053985986663e-02 0.0000000000000000e+00  6.4862191710340480e-02 3.7285637026201107e-02 0.0000000000000000e+00  1.9915330701837028e-02 7.0280525597330654e-02 0.0000000000000000e+00  -3.7556990062007217e-02 6.6198410056826140e-02 0.0000000000000000e+00  -6.9988691335087658e-02 1.9108790548699257e-02 0.0000000000000000e+00  -6.6030888305016466e-02 -3.9455600963780632e-02 0.0000000000000000e+00  -1.8881832620150252e-02 -7.0068514805407295e-02 0.0000000000000000e+00  3.7664197681669224e-02 -6.5882217831880266e-02 0.0000000000000000e+00  3.5767958529211698e-02 6.6119300308550913e-03 -4.0356690767098184e-02  1.3144775100772572e-02 2.4655583261760861e-02 -6.4725763235765801e-02  6.9862077154015392e-02 3.8964530396743864e-03 -3.8338863424351395e-02  4.6274062306500628e-02 2.2661378701506363e-02 -7.3167729958053845e-02  2.1957221386834789e-02 2.9754431869157182e-02 -3.6029255921448365e-02  -9.6580589357948832e-03 2.4710608330704285e-02 -5.9516735554295430e-02  -8.6595459781191337e-03 3.6997066373661701e-02 -3.9035881416793705e-02  -2.8752823697103736e-02 1.2386257051735003e-02 -6.2884466578108658e-02  -3.2574559078994793e-02 1.9836800861567701e-02 -3.4499507947305601e-02  -2.7566576288865923e-02 -9.7644685680948543e-03 -6.5142728680328763e-02  -3.6786113567652212e-02 -9.6940073208967321e-03 -3.7850871250858419e-02  -1.1824867048981532e-02 -2.3987565003125634e-02 -6.4160263600663556e-02  -1.7491502291680637e-02 -3.2646475389256149e-02 -3.4589471035275168e-02  1.1859233450720390e-02 -2.5674744582202862e-02 -5.9212845611373507e-02  8.2047670837134459e-03 -3.8945436105361109e-02 -3.8979491987466114e-02  2.8364921590695646e-02 -1.2001333483079512e-02 -6.2851332559049122e-02  3.0333030993074821e-02 -2.2191805470325079e-02 -3.6535254231616326e-02  2.7651853896883453e-02 8.3197071076215375e-03 -6.3410737538549894e-02  4.8893451708127804e-02 5.3315398641814782e-02 -3.9340395475676443e-02  1.7068040427902317e-02 4.7909799075551714e-02 -7.4279212873048173e-02  -3.6904720309577535e-03 7.0911436522920090e-02 -3.8635190122420081e-02  -2.1821838022591820e-02 4.7126446260537719e-02 -7.3546443653386279e-02  -5.1717034759908541e-02 4.7082322021146240e-02 -3.8462737484450525e-02  -4.7656468063680020e-02 1.6294769829673632e-02 -7.2986353274649515e-02  -7.1123083559393771e-02 -3.4488785931020213e-03 -3.8814779387254139e-02  -4.6166789477200550e-02 -2.2544754837626291e-02 -7.3566922280236244e-02  -4.7782635540140110e-02 -5.2536468597130855e-02 -3.9095743318539405e-02  -1.6659191894992053e-02 -4.6866928366512663e-02 -7.4394169320781134e-02  3.4696875838101156e-03 -7.2361016578607926e-02 -3.9029232889731709e-02  2.1901975912641883e-02 -4.7892461417126886e-02 -7.4656638996172919e-02  5.2707249269988037e-02 -4.8252460075652134e-02 -3.9178341766980249e-02  4.7016447165471702e-02 -1.6615611760163233e-02 -7.4495143425896776e-02  -6.3918238893773113e-02 -4.9576923364128373e-03 0.0000000000000000e+00  -4.6972118185034120e-02 4.0349073095695187e-02 0.0000000000000000e+00  -5.1687226846652244e-03 6.1689737602012025e-02 0.0000000000000000e+00  4.1334280141485734e-02 4.8146218147176768e-02 0.0000000000000000e+00  6.3039196105783235e-02 4.8074440474999112e-03 0.0000000000000000e+00  4.7781332694262726e-02 -4.1048793428323259e-02 0.0000000000000000e+00  5.0325708781889435e-03 -6.1209129296434378e-02 0.0000000000000000e+00  -4.0664599189227026e-02 -4.6803792961188626e-02 0.0000000000000000e+00  </DataArray> 
</PointData> 
</Piece>
</UnstructuredGrid>
</VTKFile>