<?xml version="1.0"?>
<VTKFile type="UnstructuredGrid"  version="0.1"  >
<UnstructuredGrid>
<Piece  NumberOfPoints="58" NumberOfCells="148">
<Points>
<DataArray  type="Float64"  NumberOfComponents="3"  format="ascii">0.4023249999999999 0 0  0 0 -0.8046499999999999  0.266805 0 0  0 0 -0.6691299999999999  0.2844867357408777 0.2844867357408777 0  2.775557561562891e-17 0.4023249999999999 0  -0.2844867357408777 0.2844867357408777 0  -0.4023249999999999 2.775557561562891e-17 0  -0.2844867357408777 -0.2844867357408777 0  -2.775557561562891e-17 -0.4023249999999999 0  0.2844867357408777 -0.2844867357408777 0  0.1886596247544768 0.1886596247544768 0  2.775557561562891e-17 0.266805 0  -0.1886596247544767 0.1886596247544768 0  -0.266805 8.326672684688674e-17 0  -0.1886596247544768 -0.1886596247544767 0  -1.387778780781446e-16 -0.266805 0  0.1886596247544766 -0.1886596247544769 0  0.3686082568662342 0 -0.3224491190562394  0.2536108874396318 0 -0.6246500569025265  0.2466044134321161 0 -0.2554056152626437  0.1766587270840894 0 -0.5014405794480644  0.2606453980314651 0.2606453980314651 -0.3224491190562516  0.1793299782912967 0.1793299782912967 -0.6246500569025382  2.542952674080888e-17 0.3686082568662342 -0.3224491190562394  1.749609435972772e-17 0.2536108874396318 -0.6246500569025265  -0.2606453980314651 0.2606453980314651 -0.3224491190562516  -0.1793299782912967 0.1793299782912967 -0.6246500569025382  -0.3686082568662342 2.542952674080888e-17 -0.3224491190562394  -0.2536108874396318 1.749609435972772e-17 -0.6246500569025265  -0.2606453980314651 -0.2606453980314651 -0.3224491190562516  -0.1793299782912967 -0.1793299782912967 -0.6246500569025382  -2.542952674080888e-17 -0.3686082568662342 -0.3224491190562394  -1.749609435972772e-17 -0.2536108874396318 -0.6246500569025265  0.2606453980314651 -0.2606453980314651 -0.3224491190562516  0.1793299782912967 -0.1793299782912967 -0.6246500569025382  0.1743756530083801 0.17437565300838 -0.2554056152626451  0.1249165838769436 0.1249165838769436 -0.5014405794480633  2.565411984094344e-17 0.2466044134321161 -0.2554056152626437  1.837770902997769e-17 0.1766587270840894 -0.5014405794480644  -0.1743756530083802 0.1743756530083803 -0.2554056152626436  -0.1249165838769431 0.1249165838769432 -0.5014405794480646  -0.2466044134321161 7.696235952283031e-17 -0.2554056152626437  -0.1766587270840894 5.513312708993305e-17 -0.5014405794480644  -0.1743756530083802 -0.17437565300838 -0.2554056152626445  -0.1249165838769429 -0.1249165838769428 -0.5014405794480657  -1.282705992047172e-16 -0.2466044134321161 -0.2554056152626437  -9.188854514988842e-17 -0.1766587270840894 -0.5014405794480644  0.1743756530083804 -0.1743756530083806 -0.2554056152626407  0.1249165838769432 -0.1249165838769434 -0.5014405794480641  -0.2855690901238386 -0.1182865901238386 0  -0.2855690901238385 0.1182865901238386 0  -0.1182865901238386 0.2855690901238386 -0  0.1182865901238386 0.2855690901238386 0  0.2855690901238386 0.1182865901238386 0  0.2855690901238386 -0.1182865901238386 0  0.1182865901238385 -0.2855690901238386 0  -0.1182865901238387 -0.2855690901238386 0  </DataArray>
</Points>
<Cells>
<DataArray  type="UInt32"  Name="connectivity"  format="ascii">5 6 24 52  8 9 32 57  7 8 28 50  9 10 32 56  0 4 18 54  6 7 28 51  0 10 18 55  4 5 24 53  10 18 34 55  4 18 22 54  4 22 24 53  8 28 30 50  30 42 44 50  22 23 37 39  21 22 23 37  30 31 43 45  30 31 45 47  20 34 48 55  22 36 38 53  20 22 36 54  28 40 42 51  21 34 35 49  33 34 47 49  16 17 46 56  15 16 46 57  25 26 39 41  22 24 38 53  18 20 34 55  18 20 22 54  28 30 42 50  29 30 31 43  22 23 25 39  19 21 22 23  30 31 33 47  28 29 41 43  15 42 44 50  9 32 46 57  0 18 20 55  5 24 38 52  7 28 42 51  5 24 38 53  0 18 20 54  9 32 46 56  7 28 42 50  33 34 35 49  9 16 46 57  9 16 46 56  12 36 38 53  2 11 20 54  11 12 36 53  14 15 42 50  14 40 42 51  13 14 40 51  12 13 38 52  2 17 48 55  11 20 36 54  2 20 48 55  25 26 27 41  8 30 44 50  10 34 48 55  4 22 36 54  4 22 36 53  27 28 29 41  18 21 34 35  26 27 28 41  18 19 21 35  28 29 30 43  24 25 26 39  22 24 25 39  30 32 33 47  18 19 21 22  32 33 34 47  0 2 20 54  0 2 20 55  7 14 42 50  7 14 42 51  5 12 38 52  5 12 38 53  30 43 44 45  30 44 45 47  22 36 37 39  21 22 36 37  34 47 48 49  21 34 48 49  1 3 31 33  1 3 23 25  1 3 19 23  1 3 29 31  8 15 44 50  30 42 43 44  26 39 40 41  22 36 38 39  20 21 22 36  20 21 34 48  4 11 36 54  4 11 36 53  6 13 40 51  10 17 48 55  3 31 43 45  3 23 37 39  3 31 45 47  3 21 23 37  28 41 42 43  32 44 46 47  1 3 27 29  1 3 33 35  1 3 19 35  1 3 25 27  32 46 47 48  28 40 41 42  24 38 39 40  30 32 44 47  3 33 47 49  3 21 35 49  26 28 40 41  28 30 42 43  24 26 39 40  22 24 38 39  32 34 47 48  18 20 21 22  18 20 21 34  3 29 41 43  3 25 39 41  3 29 31 43  3 23 25 39  3 31 33 47  3 19 21 23  3 33 35 49  3 27 29 41  3 25 27 41  3 19 21 35  6 24 26 40  10 32 34 48  8 30 32 44  6 26 28 40  6 28 40 51  8 15 44 46  8 15 46 57  8 32 44 46  8 32 46 57  10 17 46 56  10 17 46 48  10 32 46 56  10 32 46 48  6 13 38 52  6 13 38 40  6 24 38 52  6 24 38 40  </DataArray>
<DataArray  type="UInt32"  Name="offsets"  format="ascii">4 8 12 16 20 24 28 32 36 40 44 48 52 56 60 64 68 72 76 80 84 88 92 96 100 104 108 112 116 120 124 128 132 136 140 144 148 152 156 160 164 168 172 176 180 184 188 192 196 200 204 208 212 216 220 224 228 232 236 240 244 248 252 256 260 264 268 272 276 280 284 288 292 296 300 304 308 312 316 320 324 328 332 336 340 344 348 352 356 360 364 368 372 376 380 384 388 392 396 400 404 408 412 416 420 424 428 432 436 440 444 448 452 456 460 464 468 472 476 480 484 488 492 496 500 504 508 512 516 520 524 528 532 536 540 544 548 552 556 560 564 568 572 576 580 584 588 592 </DataArray>
<DataArray  type="UInt8"  Name="types"  format="ascii">10 10 10 10 10 10 10 10 10 10 10 10 10 10 10 10 10 10 10 10 10 10 10 10 10 10 10 10 10 10 10 10 10 10 10 10 10 10 10 10 10 10 10 10 10 10 10 10 10 10 10 10 10 10 10 10 10 10 10 10 10 10 10 10 10 10 10 10 10 10 10 10 10 10 10 10 10 10 10 10 10 10 10 10 10 10 10 10 10 10 10 10 10 10 10 10 10 10 10 10 10 10 10 10 10 10 10 10 10 10 10 10 10 10 10 10 10 10 10 10 10 10 10 10 10 10 10 10 10 10 10 10 10 10 10 10 10 10 10 10 10 10 10 10 10 10 10 10 </DataArray>
</Cells>
<PointData  Vectors="f_37-0"> 
<DataArray  type="Float64"  Name="f_37-0"  NumberOfComponents="3" format="ascii">3.2968372146302181e-02 -1.7501356035622796e-02 0.0000000000000000e+00  -5.5198196444837121e-04 4.6503980139030057e-04 -4.4510156712141084e-02  5.6653601180681044e-02 -1.5609433524738392e-02 0.0000000000000000e+00  -8.8223365769343482e-05 -1.3025895398428026e-04 -5.9779372368805934e-02  3.8797332900819201e-02 1.2638245650509703e-02 0.0000000000000000e+00  1.7475891422088077e-02 3.3396928419071790e-02 0.0000000000000000e+00  -1.2408468108483900e-02 3.8108239294441702e-02 0.0000000000000000e+00  -3.2444230416364940e-02 1.8446934122813605e-02 0.0000000000000000e+00  -3.8653917597448989e-02 -1.2964720590259386e-02 0.0000000000000000e+00  -1.8171692934903231e-02 -3.1274046700802270e-02 0.0000000000000000e+00  1.1698541862769224e-02 -3.7910325693843144e-02 0.0000000000000000e+00  5.2572013476103026e-02 3.0530879088735759e-02 0.0000000000000000e+00  1.5930758017320714e-02 5.6782215092076156e-02 0.0000000000000000e+00  -3.0564098099627093e-02 5.3629202553503806e-02 0.0000000000000000e+00  -5.6593527983165262e-02 1.5378523553335978e-02 0.0000000000000000e+00  -5.3333675092310830e-02 -3.2227052903390299e-02 0.0000000000000000e+00  -1.5142705827411550e-02 -5.6712104259121265e-02 0.0000000000000000e+00  3.0543973641966864e-02 -5.3252798734178868e-02 0.0000000000000000e+00  2.9230021771454749e-02 5.1283650360427801e-03 -2.9793655322848278e-02  9.8233264312292835e-03 2.0212583492642874e-02 -4.7588402006440746e-02  5.6172569856727798e-02 2.8001783623521760e-03 -2.8164428569489662e-02  3.6427872941318711e-02 1.7276602373142005e-02 -5.3066809749819525e-02  1.8051415836043545e-02 2.4433448991481813e-02 -2.7393216761229498e-02  -7.7201662183900800e-03 2.0675048500756660e-02 -4.5794048503649890e-02  -6.2331076334351575e-03 2.9970438754599905e-02 -2.8953293020221347e-02  -2.2678293943412579e-02 9.2202733970027546e-03 -4.6973656775068220e-02  -2.5912370253753626e-02 1.5889172405670827e-02 -2.6192662928431143e-02  -2.1636425294346586e-02 -8.1391743532568724e-03 -4.7596605038027706e-02  -3.0246568526111843e-02 -6.8883449377629491e-03 -2.8352224401623383e-02  -9.2467082464011158e-03 -1.9493354261779606e-02 -4.7606057265479340e-02  -1.5243152695028470e-02 -2.5931414032922411e-02 -2.6273342278822491e-02  8.8418092359005118e-03 -2.1098215841366067e-02 -4.5513685402392985e-02  6.1102731846168889e-03 -3.0948518360864524e-02 -2.8932161920799736e-02  2.2768656216009025e-02 -9.2783171108895956e-03 -4.7376591508299336e-02  2.4672637323488299e-02 -1.7644543756522038e-02 -2.7629302084077569e-02  2.1643825359293926e-02 7.2464430840603810e-03 -4.7382374746935893e-02  3.9422902569854652e-02 4.2496318033647729e-02 -2.9051147311859333e-02  1.4168091075264124e-02 3.7566952311607490e-02 -5.3993285728320975e-02  -2.5444233042217295e-03 5.7019826546568862e-02 -2.8425737189187592e-02  -1.6409555628150444e-02 3.7036223795703496e-02 -5.3471022463510653e-02  -4.1188666955854131e-02 3.7909921460876572e-02 -2.8270658891371661e-02  -3.7138962574448826e-02 1.3119513312038986e-02 -5.3047171583867826e-02  -5.7226609563509424e-02 -2.3972373567722957e-03 -2.8713698494621586e-02  -3.6527324920937951e-02 -1.7348021112024860e-02 -5.3422752889425294e-02  -3.8818847566247094e-02 -4.1857739035276960e-02 -2.8926717387386967e-02  -1.3818155264009467e-02 -3.6808340271112829e-02 -5.4346570372788915e-02  2.3004479094787529e-03 -5.8150531039315986e-02 -2.8886606618111734e-02  1.6556684613153072e-02 -3.7533560982127720e-02 -5.4232426571909929e-02  4.2021448397122046e-02 -3.8769227941930114e-02 -2.8964888008780609e-02  3.6860572324412512e-02 -1.3559179509579862e-02 -5.4352938729679903e-02  -5.1620217270494845e-02 -4.2785090197917947e-03 0.0000000000000000e+00  -3.8239491776285224e-02 3.2474078054966056e-02 0.0000000000000000e+00  -4.4741145821032453e-03 5.0227573461248141e-02 0.0000000000000000e+00  3.3160521069497503e-02 3.9299296190194850e-02 0.0000000000000000e+00  5.0885219022239879e-02 4.2413743963004994e-03 0.0000000000000000e+00  3.8870892531287435e-02 -3.2871821676163572e-02 0.0000000000000000e+00  4.3022809951085974e-03 -4.9647240404595901e-02 0.0000000000000000e+00  -3.2796227530832264e-02 -3.8312942396639828e-02 0.0000000000000000e+00  </DataArray> 
</PointData> 
</Piece>
</UnstructuredGrid>
</VTKFile>