<?xml version="1.0"?>
<VTKFile type="UnstructuredGrid"  version="0.1"  >
<UnstructuredGrid>
<Piece  NumberOfPoints="58" NumberOfCells="148">
<Points>
<DataArray  type="Float64"  NumberOfComponents="3"  format="ascii">0.4023249999999999 0 0  0 0 -0.8046499999999999  0.266805 0 0  0 0 -0.6691299999999999  0.2844867357408777 0.2844867357408777 0  2.775557561562891e-17 0.4023249999999999 0  -0.2844867357408777 0.2844867357408777 0  -0.4023249999999999 2.775557561562891e-17 0  -0.2844867357408777 -0.2844867357408777 0  -2.775557561562891e-17 -0.4023249999999999 0  0.2844867357408777 -0.2844867357408777 0  0.1886596247544768 0.1886596247544768 0  2.775557561562891e-17 0.266805 0  -0.1886596247544767 0.1886596247544768 0  -0.266805 8.326672684688674e-17 0  -0.1886596247544768 -0.1886596247544767 0  -1.387778780781446e-16 -0.266805 0  0.1886596247544766 -0.1886596247544769 0  0.3686082568662342 0 -0.3224491190562394  0.2536108874396318 0 -0.6246500569025265  0.2466044134321161 0 -0.2554056152626437  0.1766587270840894 0 -0.5014405794480644  0.2606453980314651 0.2606453980314651 -0.3224491190562516  0.1793299782912967 0.1793299782912967 -0.6246500569025382  2.542952674080888e-17 0.3686082568662342 -0.3224491190562394  1.749609435972772e-17 0.2536108874396318 -0.6246500569025265  -0.2606453980314651 0.2606453980314651 -0.3224491190562516  -0.1793299782912967 0.1793299782912967 -0.6246500569025382  -0.3686082568662342 2.542952674080888e-17 -0.3224491190562394  -0.2536108874396318 1.749609435972772e-17 -0.6246500569025265  -0.2606453980314651 -0.2606453980314651 -0.3224491190562516  -0.1793299782912967 -0.1793299782912967 -0.6246500569025382  -2.542952674080888e-17 -0.3686082568662342 -0.3224491190562394  -1.749609435972772e-17 -0.2536108874396318 -0.6246500569025265  0.2606453980314651 -0.2606453980314651 -0.3224491190562516  0.1793299782912967 -0.1793299782912967 -0.6246500569025382  0.1743756530083801 0.17437565300838 -0.2554056152626451  0.1249165838769436 0.1249165838769436 -0.5014405794480633  2.565411984094344e-17 0.2466044134321161 -0.2554056152626437  1.837770902997769e-17 0.1766587270840894 -0.5014405794480644  -0.1743756530083802 0.1743756530083803 -0.2554056152626436  -0.1249165838769431 0.1249165838769432 -0.5014405794480646  -0.2466044134321161 7.696235952283031e-17 -0.2554056152626437  -0.1766587270840894 5.513312708993305e-17 -0.5014405794480644  -0.1743756530083802 -0.17437565300838 -0.2554056152626445  -0.1249165838769429 -0.1249165838769428 -0.5014405794480657  -1.282705992047172e-16 -0.2466044134321161 -0.2554056152626437  -9.188854514988842e-17 -0.1766587270840894 -0.5014405794480644  0.1743756530083804 -0.1743756530083806 -0.2554056152626407  0.1249165838769432 -0.1249165838769434 -0.5014405794480641  -0.2855690901238386 -0.1182865901238386 0  -0.2855690901238385 0.1182865901238386 0  -0.1182865901238386 0.2855690901238386 -0  0.1182865901238386 0.2855690901238386 0  0.2855690901238386 0.1182865901238386 0  0.2855690901238386 -0.1182865901238386 0  0.1182865901238385 -0.2855690901238386 0  -0.1182865901238387 -0.2855690901238386 0  </DataArray>
</Points>
<Cells>
<DataArray  type="UInt32"  Name="connectivity"  format="ascii">5 6 24 52  8 9 32 57  7 8 28 50  9 10 32 56  0 4 18 54  6 7 28 51  0 10 18 55  4 5 24 53  10 18 34 55  4 18 22 54  4 22 24 53  8 28 30 50  30 42 44 50  22 23 37 39  21 22 23 37  30 31 43 45  30 31 45 47  20 34 48 55  22 36 38 53  20 22 36 54  28 40 42 51  21 34 35 49  33 34 47 49  16 17 46 56  15 16 46 57  25 26 39 41  22 24 38 53  18 20 34 55  18 20 22 54  28 30 42 50  29 30 31 43  22 23 25 39  19 21 22 23  30 31 33 47  28 29 41 43  15 42 44 50  9 32 46 57  0 18 20 55  5 24 38 52  7 28 42 51  5 24 38 53  0 18 20 54  9 32 46 56  7 28 42 50  33 34 35 49  9 16 46 57  9 16 46 56  12 36 38 53  2 11 20 54  11 12 36 53  14 15 42 50  14 40 42 51  13 14 40 51  12 13 38 52  2 17 48 55  11 20 36 54  2 20 48 55  25 26 27 41  8 30 44 50  10 34 48 55  4 22 36 54  4 22 36 53  27 28 29 41  18 21 34 35  26 27 28 41  18 19 21 35  28 29 30 43  24 25 26 39  22 24 25 39  30 32 33 47  18 19 21 22  32 33 34 47  0 2 20 54  0 2 20 55  7 14 42 50  7 14 42 51  5 12 38 52  5 12 38 53  30 43 44 45  30 44 45 47  22 36 37 39  21 22 36 37  34 47 48 49  21 34 48 49  1 3 31 33  1 3 23 25  1 3 19 23  1 3 29 31  8 15 44 50  30 42 43 44  26 39 40 41  22 36 38 39  20 21 22 36  20 21 34 48  4 11 36 54  4 11 36 53  6 13 40 51  10 17 48 55  3 31 43 45  3 23 37 39  3 31 45 47  3 21 23 37  28 41 42 43  32 44 46 47  1 3 27 29  1 3 33 35  1 3 19 35  1 3 25 27  32 46 47 48  28 40 41 42  24 38 39 40  30 32 44 47  3 33 47 49  3 21 35 49  26 28 40 41  28 30 42 43  24 26 39 40  22 24 38 39  32 34 47 48  18 20 21 22  18 20 21 34  3 29 41 43  3 25 39 41  3 29 31 43  3 23 25 39  3 31 33 47  3 19 21 23  3 33 35 49  3 27 29 41  3 25 27 41  3 19 21 35  6 24 26 40  10 32 34 48  8 30 32 44  6 26 28 40  6 28 40 51  8 15 44 46  8 15 46 57  8 32 44 46  8 32 46 57  10 17 46 56  10 17 46 48  10 32 46 56  10 32 46 48  6 13 38 52  6 13 38 40  6 24 38 52  6 24 38 40  </DataArray>
<DataArray  type="UInt32"  Name="offsets"  format="ascii">4 8 12 16 20 24 28 32 36 40 44 48 52 56 60 64 68 72 76 80 84 88 92 96 100 104 108 112 116 120 124 128 132 136 140 144 148 152 156 160 164 168 172 176 180 184 188 192 196 200 204 208 212 216 220 224 228 232 236 240 244 248 252 256 260 264 268 272 276 280 284 288 292 296 300 304 308 312 316 320 324 328 332 336 340 344 348 352 356 360 364 368 372 376 380 384 388 392 396 400 404 408 412 416 420 424 428 432 436 440 444 448 452 456 460 464 468 472 476 480 484 488 492 496 500 504 508 512 516 520 524 528 532 536 540 544 548 552 556 560 564 568 572 576 580 584 588 592 </DataArray>
<DataArray  type="UInt8"  Name="types"  format="ascii">10 10 10 10 10 10 10 10 10 10 10 10 10 10 10 10 10 10 10 10 10 10 10 10 10 10 10 10 10 10 10 10 10 10 10 10 10 10 10 10 10 10 10 10 10 10 10 10 10 10 10 10 10 10 10 10 10 10 10 10 10 10 10 10 10 10 10 10 10 10 10 10 10 10 10 10 10 10 10 10 10 10 10 10 10 10 10 10 10 10 10 10 10 10 10 10 10 10 10 10 10 10 10 10 10 10 10 10 10 10 10 10 10 10 10 10 10 10 10 10 10 10 10 10 10 10 10 10 10 10 10 10 10 10 10 10 10 10 10 10 10 10 10 10 10 10 10 10 </DataArray>
</Cells>
<PointData  Vectors="f_37-0"> 
<DataArray  type="Float64"  Name="f_37-0"  NumberOfComponents="3" format="ascii">3.3406714060201487e-02 -1.7746734022764197e-02 0.0000000000000000e+00  -5.7268925387140830e-04 4.9161786225568500e-04 -4.5433988451466005e-02  5.7498437762588304e-02 -1.5854124984302605e-02 0.0000000000000000e+00  -9.9163775135500802e-05 -1.3891382646277994e-04 -6.1309355795358809e-02  3.9313175236580310e-02 1.2764528090139506e-02 0.0000000000000000e+00  1.7708030662819358e-02 3.3830495849879488e-02 0.0000000000000000e+00  -1.2560949645638789e-02 3.8599344262976121e-02 0.0000000000000000e+00  -3.2850336210784342e-02 1.8721726292934456e-02 0.0000000000000000e+00  -3.9180001313869409e-02 -1.3089886349883159e-02 0.0000000000000000e+00  -1.8423999426834790e-02 -3.1657097710554097e-02 0.0000000000000000e+00  1.1850456346981515e-02 -3.8411609220271987e-02 0.0000000000000000e+00  5.3336264247623444e-02 3.0955160171803098e-02 0.0000000000000000e+00  1.6176044432624149e-02 5.7622033447357009e-02 0.0000000000000000e+00  -3.1001509398611609e-02 5.4408850732225005e-02 0.0000000000000000e+00  -5.7427631360320842e-02 1.5608794073221565e-02 0.0000000000000000e+00  -5.4122889988337169e-02 -3.2679583593651217e-02 0.0000000000000000e+00  -1.5374982837162220e-02 -5.7543270839609459e-02 0.0000000000000000e+00  3.0986934722194763e-02 -5.4034083477320430e-02 0.0000000000000000e+00  2.9646716548983171e-02 5.2225805532748982e-03 -3.0427494043377825e-02  1.0026390527983669e-02 2.0528164923242258e-02 -4.8643115064956201e-02  5.7023008025374501e-02 2.8666954352487058e-03 -2.8777976436091628e-02  3.7044927475882686e-02 1.7609558221828737e-02 -5.4287968440896880e-02  1.8295929927056337e-02 2.4780894272765232e-02 -2.7931996502155287e-02  -7.8435595140323323e-03 2.0980121549473759e-02 -4.6699907252065527e-02  -6.3739891191649869e-03 3.0411083170249258e-02 -2.9562945052478997e-02  -2.3071274489357037e-02 9.4221556086304600e-03 -4.7977489263833273e-02  -2.6328287904728857e-02 1.6120018248116891e-02 -2.6712882055158343e-02  -2.2027146620557620e-02 -8.2528286172000431e-03 -4.8668786880860286e-02  -3.0667220991340158e-02 -7.0478423235316185e-03 -2.8933752031212935e-02  -9.4230586689420092e-03 -1.9801024018447619e-02 -4.8637524943882925e-02  -1.5405253074400872e-02 -2.6347827614628772e-02 -2.6790749189565716e-02  9.0164692132319209e-03 -2.1425821505403175e-02 -4.6413310790518462e-02  6.2407540124654361e-03 -3.1434285417242303e-02 -2.9541657532972099e-02  2.3144021329193916e-02 -9.4653056333091762e-03 -4.8367542294013403e-02  2.5041486816835028e-02 -1.7913686529442335e-02 -2.8180761317619436e-02  2.2034894588310285e-02 7.3336177085225945e-03 -4.8391339682104857e-02  4.0011003374049080e-02 4.3165210052103366e-02 -2.9675203556071703e-02  1.4358088042342700e-02 3.8216531512247992e-02 -5.5225594133965814e-02  -2.6110544074598838e-03 5.7884708314205037e-02 -2.9041907215262425e-02  -1.6739952035523847e-02 3.7666508397153173e-02 -5.4691212731688983e-02  -4.1841714753488031e-02 3.8478877178235636e-02 -2.8885092056746255e-02  -3.7794902114823510e-02 1.3320317043722715e-02 -5.4259418933006225e-02  -5.8091495589619756e-02 -2.4607960547135001e-03 -2.9325293779822237e-02  -3.7133200660436086e-02 -1.7674564203199638e-02 -5.4646943443059176e-02  -3.9379319890388016e-02 -4.2517230890612018e-02 -2.9543537610173920e-02  -1.4003500415627217e-02 -3.7438601699469477e-02 -5.5567557941454411e-02  2.3703640247465197e-03 -5.9033743477006136e-02 -2.9500286750964080e-02  1.6884306940353318e-02 -3.8177875688751813e-02 -5.5471605028923877e-02  4.2684433780633496e-02 -3.9357073994692800e-02 -2.9583711718836055e-02  3.7496889459951936e-02 -1.3752995482269043e-02 -5.5577898656529616e-02  -5.2382097961581518e-02 -4.3239981672167100e-03 0.0000000000000000e+00  -3.8781873439560584e-02 3.2961385073130213e-02 0.0000000000000000e+00  -4.5211186490744966e-03 5.0943172911273454e-02 0.0000000000000000e+00  3.3665097359752087e-02 3.9854242810235870e-02 0.0000000000000000e+00  5.1636963011288527e-02 4.2796219237754346e-03 0.0000000000000000e+00  3.9426330174258895e-02 -3.3375079707738668e-02 0.0000000000000000e+00  4.3501111380045490e-03 -5.0366202755504186e-02 0.0000000000000000e+00  -3.3283735265306105e-02 -3.8847199475631734e-02 0.0000000000000000e+00  </DataArray> 
</PointData> 
</Piece>
</UnstructuredGrid>
</VTKFile>