<?xml version="1.0"?>
<VTKFile type="UnstructuredGrid"  version="0.1"  >
<UnstructuredGrid>
<Piece  NumberOfPoints="58" NumberOfCells="148">
<Points>
<DataArray  type="Float64"  NumberOfComponents="3"  format="ascii">0.4023249999999999 0 0  0 0 -0.8046499999999999  0.266805 0 0  0 0 -0.6691299999999999  0.2844867357408777 0.2844867357408777 0  2.775557561562891e-17 0.4023249999999999 0  -0.2844867357408777 0.2844867357408777 0  -0.4023249999999999 2.775557561562891e-17 0  -0.2844867357408777 -0.2844867357408777 0  -2.775557561562891e-17 -0.4023249999999999 0  0.2844867357408777 -0.2844867357408777 0  0.1886596247544768 0.1886596247544768 0  2.775557561562891e-17 0.266805 0  -0.1886596247544767 0.1886596247544768 0  -0.266805 8.326672684688674e-17 0  -0.1886596247544768 -0.1886596247544767 0  -1.387778780781446e-16 -0.266805 0  0.1886596247544766 -0.1886596247544769 0  0.3686082568662342 0 -0.3224491190562394  0.2536108874396318 0 -0.6246500569025265  0.2466044134321161 0 -0.2554056152626437  0.1766587270840894 0 -0.5014405794480644  0.2606453980314651 0.2606453980314651 -0.3224491190562516  0.1793299782912967 0.1793299782912967 -0.6246500569025382  2.542952674080888e-17 0.3686082568662342 -0.3224491190562394  1.749609435972772e-17 0.2536108874396318 -0.6246500569025265  -0.2606453980314651 0.2606453980314651 -0.3224491190562516  -0.1793299782912967 0.1793299782912967 -0.6246500569025382  -0.3686082568662342 2.542952674080888e-17 -0.3224491190562394  -0.2536108874396318 1.749609435972772e-17 -0.6246500569025265  -0.2606453980314651 -0.2606453980314651 -0.3224491190562516  -0.1793299782912967 -0.1793299782912967 -0.6246500569025382  -2.542952674080888e-17 -0.3686082568662342 -0.3224491190562394  -1.749609435972772e-17 -0.2536108874396318 -0.6246500569025265  0.2606453980314651 -0.2606453980314651 -0.3224491190562516  0.1793299782912967 -0.1793299782912967 -0.6246500569025382  0.1743756530083801 0.17437565300838 -0.2554056152626451  0.1249165838769436 0.1249165838769436 -0.5014405794480633  2.565411984094344e-17 0.2466044134321161 -0.2554056152626437  1.837770902997769e-17 0.1766587270840894 -0.5014405794480644  -0.1743756530083802 0.1743756530083803 -0.2554056152626436  -0.1249165838769431 0.1249165838769432 -0.5014405794480646  -0.2466044134321161 7.696235952283031e-17 -0.2554056152626437  -0.1766587270840894 5.513312708993305e-17 -0.5014405794480644  -0.1743756530083802 -0.17437565300838 -0.2554056152626445  -0.1249165838769429 -0.1249165838769428 -0.5014405794480657  -1.282705992047172e-16 -0.2466044134321161 -0.2554056152626437  -9.188854514988842e-17 -0.1766587270840894 -0.5014405794480644  0.1743756530083804 -0.1743756530083806 -0.2554056152626407  0.1249165838769432 -0.1249165838769434 -0.5014405794480641  -0.2855690901238386 -0.1182865901238386 0  -0.2855690901238385 0.1182865901238386 0  -0.1182865901238386 0.2855690901238386 -0  0.1182865901238386 0.2855690901238386 0  0.2855690901238386 0.1182865901238386 0  0.2855690901238386 -0.1182865901238386 0  0.1182865901238385 -0.2855690901238386 0  -0.1182865901238387 -0.2855690901238386 0  </DataArray>
</Points>
<Cells>
<DataArray  type="UInt32"  Name="connectivity"  format="ascii">5 6 24 52  8 9 32 57  7 8 28 50  9 10 32 56  0 4 18 54  6 7 28 51  0 10 18 55  4 5 24 53  10 18 34 55  4 18 22 54  4 22 24 53  8 28 30 50  30 42 44 50  22 23 37 39  21 22 23 37  30 31 43 45  30 31 45 47  20 34 48 55  22 36 38 53  20 22 36 54  28 40 42 51  21 34 35 49  33 34 47 49  16 17 46 56  15 16 46 57  25 26 39 41  22 24 38 53  18 20 34 55  18 20 22 54  28 30 42 50  29 30 31 43  22 23 25 39  19 21 22 23  30 31 33 47  28 29 41 43  15 42 44 50  9 32 46 57  0 18 20 55  5 24 38 52  7 28 42 51  5 24 38 53  0 18 20 54  9 32 46 56  7 28 42 50  33 34 35 49  9 16 46 57  9 16 46 56  12 36 38 53  2 11 20 54  11 12 36 53  14 15 42 50  14 40 42 51  13 14 40 51  12 13 38 52  2 17 48 55  11 20 36 54  2 20 48 55  25 26 27 41  8 30 44 50  10 34 48 55  4 22 36 54  4 22 36 53  27 28 29 41  18 21 34 35  26 27 28 41  18 19 21 35  28 29 30 43  24 25 26 39  22 24 25 39  30 32 33 47  18 19 21 22  32 33 34 47  0 2 20 54  0 2 20 55  7 14 42 50  7 14 42 51  5 12 38 52  5 12 38 53  30 43 44 45  30 44 45 47  22 36 37 39  21 22 36 37  34 47 48 49  21 34 48 49  1 3 31 33  1 3 23 25  1 3 19 23  1 3 29 31  8 15 44 50  30 42 43 44  26 39 40 41  22 36 38 39  20 21 22 36  20 21 34 48  4 11 36 54  4 11 36 53  6 13 40 51  10 17 48 55  3 31 43 45  3 23 37 39  3 31 45 47  3 21 23 37  28 41 42 43  32 44 46 47  1 3 27 29  1 3 33 35  1 3 19 35  1 3 25 27  32 46 47 48  28 40 41 42  24 38 39 40  30 32 44 47  3 33 47 49  3 21 35 49  26 28 40 41  28 30 42 43  24 26 39 40  22 24 38 39  32 34 47 48  18 20 21 22  18 20 21 34  3 29 41 43  3 25 39 41  3 29 31 43  3 23 25 39  3 31 33 47  3 19 21 23  3 33 35 49  3 27 29 41  3 25 27 41  3 19 21 35  6 24 26 40  10 32 34 48  8 30 32 44  6 26 28 40  6 28 40 51  8 15 44 46  8 15 46 57  8 32 44 46  8 32 46 57  10 17 46 56  10 17 46 48  10 32 46 56  10 32 46 48  6 13 38 52  6 13 38 40  6 24 38 52  6 24 38 40  </DataArray>
<DataArray  type="UInt32"  Name="offsets"  format="ascii">4 8 12 16 20 24 28 32 36 40 44 48 52 56 60 64 68 72 76 80 84 88 92 96 100 104 108 112 116 120 124 128 132 136 140 144 148 152 156 160 164 168 172 176 180 184 188 192 196 200 204 208 212 216 220 224 228 232 236 240 244 248 252 256 260 264 268 272 276 280 284 288 292 296 300 304 308 312 316 320 324 328 332 336 340 344 348 352 356 360 364 368 372 376 380 384 388 392 396 400 404 408 412 416 420 424 428 432 436 440 444 448 452 456 460 464 468 472 476 480 484 488 492 496 500 504 508 512 516 520 524 528 532 536 540 544 548 552 556 560 564 568 572 576 580 584 588 592 </DataArray>
<DataArray  type="UInt8"  Name="types"  format="ascii">10 10 10 10 10 10 10 10 10 10 10 10 10 10 10 10 10 10 10 10 10 10 10 10 10 10 10 10 10 10 10 10 10 10 10 10 10 10 10 10 10 10 10 10 10 10 10 10 10 10 10 10 10 10 10 10 10 10 10 10 10 10 10 10 10 10 10 10 10 10 10 10 10 10 10 10 10 10 10 10 10 10 10 10 10 10 10 10 10 10 10 10 10 10 10 10 10 10 10 10 10 10 10 10 10 10 10 10 10 10 10 10 10 10 10 10 10 10 10 10 10 10 10 10 10 10 10 10 10 10 10 10 10 10 10 10 10 10 10 10 10 10 10 10 10 10 10 10 </DataArray>
</Cells>
<PointData  Vectors="f_37-0"> 
<DataArray  type="Float64"  Name="f_37-0"  NumberOfComponents="3" format="ascii">2.3444913837742391e-02 -1.2210155681952129e-02 0.0000000000000000e+00  -2.6261358128217737e-04 1.6142107309919290e-04 -2.4684300060072203e-02  3.9154500056002531e-02 -1.0616006744275616e-02 0.0000000000000000e+00  3.2805564365888253e-05 4.7939377246693178e-06 -3.0957428110303838e-02  2.7596196024078021e-02 9.5430610354381874e-03 0.0000000000000000e+00  1.2380837321058704e-02 2.3836702416602195e-02 0.0000000000000000e+00  -9.1266551331180765e-03 2.7314019572280721e-02 0.0000000000000000e+00  -2.3302346256667609e-02 1.2706179293185786e-02 0.0000000000000000e+00  -2.7443396631818582e-02 -9.7879835091477779e-03 0.0000000000000000e+00  -1.2734829016800373e-02 -2.2514794038666974e-02 0.0000000000000000e+00  8.5028258989607690e-03 -2.7019049443926593e-02 0.0000000000000000e+00  3.6660740968545047e-02 2.1625531404826294e-02 0.0000000000000000e+00  1.0882509019160982e-02 3.9358681678039083e-02 0.0000000000000000e+00  -2.1434420732241260e-02 3.7433915418723859e-02 0.0000000000000000e+00  -3.9255224743442875e-02 1.0590725934603843e-02 0.0000000000000000e+00  -3.6946717315815128e-02 -2.2777704984359156e-02 0.0000000000000000e+00  -1.0290757068080062e-02 -3.9417573430976495e-02 0.0000000000000000e+00  2.1357637972929069e-02 -3.7063763706643875e-02 0.0000000000000000e+00  2.0359701233185045e-02 3.3118243597687856e-03 -1.7656670270187535e-02  5.8136265336819577e-03 1.3335416352400053e-02 -2.7110361028370802e-02  3.8534687391729890e-02 1.6400807661967965e-03 -1.6369239818349320e-02  2.3651651612849676e-02 1.0749631741758822e-02 -2.9547289784619062e-02  1.2786821141083198e-02 1.6991081779302350e-02 -1.6660879249888291e-02  -5.2612542384647392e-03 1.3628700093274278e-02 -2.6969641810881507e-02  -3.7212339034748431e-03 2.0737213656181142e-02 -1.7205588530519882e-02  -1.4639721921205570e-02 5.2501201873266373e-03 -2.7047207163988733e-02  -1.7430814703784429e-02 1.1160364087907770e-02 -1.5838625333242377e-02  -1.3599554377324335e-02 -5.6365269624731595e-03 -2.6933765922182946e-02  -2.1203221829629491e-02 -4.0889863048336186e-03 -1.6997929758971974e-02  -5.5276223393986986e-03 -1.2864838447986898e-02 -2.7301159243928026e-02  -1.1258686486938048e-02 -1.7504355168378678e-02 -1.5986000737383939e-02  5.6637173741590947e-03 -1.3740983449068449e-02 -2.6863989804043566e-02  3.6733033754943732e-03 -2.1090231396639750e-02 -1.7160506703706876e-02  1.4862362305596019e-02 -5.4288763893522310e-03 -2.7511778083990242e-02  1.6884108168870839e-02 -1.2181004866478147e-02 -1.6722227430090747e-02  1.3626787246554911e-02 5.1827794121136412e-03 -2.7331795749638826e-02  2.7153512113088581e-02 2.8865346016562467e-02 -1.6982903291405629e-02  9.8267530510296880e-03 2.4250145863077239e-02 -3.0242578538754374e-02  -1.4335733483404110e-03 3.9076210063510357e-02 -1.6558806787359288e-02  -1.0031785098616231e-02 2.4045066362729798e-02 -2.9913945272417867e-02  -2.7838530190332351e-02 2.6043294338200039e-02 -1.6440777112504964e-02  -2.3809362979315539e-02 8.7529467467042637e-03 -2.9654853456231471e-02  -3.9270098217260192e-02 -1.2951602442214018e-03 -1.6878939325958811e-02  -2.3891085565718954e-02 -1.0820606719284564e-02 -2.9828042475603098e-02  -2.6983641756331438e-02 -2.8413424157982807e-02 -1.6974406849308749e-02  -9.5826396368221683e-03 -2.3853137662183270e-02 -3.0696299095889775e-02  1.1147873696849408e-03 -3.9862992852474292e-02 -1.7007003853131999e-02  1.0200809536422167e-02 -2.4326766265600933e-02 -3.0375976106402410e-02  2.8461287977093391e-02 -2.6542016895666595e-02 -1.6989351138514849e-02  2.3821090314141841e-02 -9.2789602656208250e-03 -3.0669939892696910e-02  -3.5847606090894650e-02 -3.2947274990299939e-03 0.0000000000000000e+00  -2.6939001992496894e-02 2.2375957748558786e-02 0.0000000000000000e+00  -3.4437580951087810e-03 3.5253109078451569e-02 0.0000000000000000e+00  2.2757942126343803e-02 2.7672314278617636e-02 0.0000000000000000e+00  3.5343448227841551e-02 3.3867479668447564e-03 0.0000000000000000e+00  2.7293187650736284e-02 -2.2514274875621715e-02 0.0000000000000000e+00  3.2895247286821188e-03 -3.4669292891762377e-02 0.0000000000000000e+00  -2.2655015955158227e-02 -2.7050067648959768e-02 0.0000000000000000e+00  </DataArray> 
</PointData> 
</Piece>
</UnstructuredGrid>
</VTKFile>