<?xml version="1.0"?>
<VTKFile type="UnstructuredGrid"  version="0.1"  >
<UnstructuredGrid>
<Piece  NumberOfPoints="58" NumberOfCells="148">
<Points>
<DataArray  type="Float64"  NumberOfComponents="3"  format="ascii">0.4023249999999999 0 0  0 0 -0.8046499999999999  0.266805 0 0  0 0 -0.6691299999999999  0.2844867357408777 0.2844867357408777 0  2.775557561562891e-17 0.4023249999999999 0  -0.2844867357408777 0.2844867357408777 0  -0.4023249999999999 2.775557561562891e-17 0  -0.2844867357408777 -0.2844867357408777 0  -2.775557561562891e-17 -0.4023249999999999 0  0.2844867357408777 -0.2844867357408777 0  0.1886596247544768 0.1886596247544768 0  2.775557561562891e-17 0.266805 0  -0.1886596247544767 0.1886596247544768 0  -0.266805 8.326672684688674e-17 0  -0.1886596247544768 -0.1886596247544767 0  -1.387778780781446e-16 -0.266805 0  0.1886596247544766 -0.1886596247544769 0  0.3686082568662342 0 -0.3224491190562394  0.2536108874396318 0 -0.6246500569025265  0.2466044134321161 0 -0.2554056152626437  0.1766587270840894 0 -0.5014405794480644  0.2606453980314651 0.2606453980314651 -0.3224491190562516  0.1793299782912967 0.1793299782912967 -0.6246500569025382  2.542952674080888e-17 0.3686082568662342 -0.3224491190562394  1.749609435972772e-17 0.2536108874396318 -0.6246500569025265  -0.2606453980314651 0.2606453980314651 -0.3224491190562516  -0.1793299782912967 0.1793299782912967 -0.6246500569025382  -0.3686082568662342 2.542952674080888e-17 -0.3224491190562394  -0.2536108874396318 1.749609435972772e-17 -0.6246500569025265  -0.2606453980314651 -0.2606453980314651 -0.3224491190562516  -0.1793299782912967 -0.1793299782912967 -0.6246500569025382  -2.542952674080888e-17 -0.3686082568662342 -0.3224491190562394  -1.749609435972772e-17 -0.2536108874396318 -0.6246500569025265  0.2606453980314651 -0.2606453980314651 -0.3224491190562516  0.1793299782912967 -0.1793299782912967 -0.6246500569025382  0.1743756530083801 0.17437565300838 -0.2554056152626451  0.1249165838769436 0.1249165838769436 -0.5014405794480633  2.565411984094344e-17 0.2466044134321161 -0.2554056152626437  1.837770902997769e-17 0.1766587270840894 -0.5014405794480644  -0.1743756530083802 0.1743756530083803 -0.2554056152626436  -0.1249165838769431 0.1249165838769432 -0.5014405794480646  -0.2466044134321161 7.696235952283031e-17 -0.2554056152626437  -0.1766587270840894 5.513312708993305e-17 -0.5014405794480644  -0.1743756530083802 -0.17437565300838 -0.2554056152626445  -0.1249165838769429 -0.1249165838769428 -0.5014405794480657  -1.282705992047172e-16 -0.2466044134321161 -0.2554056152626437  -9.188854514988842e-17 -0.1766587270840894 -0.5014405794480644  0.1743756530083804 -0.1743756530083806 -0.2554056152626407  0.1249165838769432 -0.1249165838769434 -0.5014405794480641  -0.2855690901238386 -0.1182865901238386 0  -0.2855690901238385 0.1182865901238386 0  -0.1182865901238386 0.2855690901238386 -0  0.1182865901238386 0.2855690901238386 0  0.2855690901238386 0.1182865901238386 0  0.2855690901238386 -0.1182865901238386 0  0.1182865901238385 -0.2855690901238386 0  -0.1182865901238387 -0.2855690901238386 0  </DataArray>
</Points>
<Cells>
<DataArray  type="UInt32"  Name="connectivity"  format="ascii">5 6 24 52  8 9 32 57  7 8 28 50  9 10 32 56  0 4 18 54  6 7 28 51  0 10 18 55  4 5 24 53  10 18 34 55  4 18 22 54  4 22 24 53  8 28 30 50  30 42 44 50  22 23 37 39  21 22 23 37  30 31 43 45  30 31 45 47  20 34 48 55  22 36 38 53  20 22 36 54  28 40 42 51  21 34 35 49  33 34 47 49  16 17 46 56  15 16 46 57  25 26 39 41  22 24 38 53  18 20 34 55  18 20 22 54  28 30 42 50  29 30 31 43  22 23 25 39  19 21 22 23  30 31 33 47  28 29 41 43  15 42 44 50  9 32 46 57  0 18 20 55  5 24 38 52  7 28 42 51  5 24 38 53  0 18 20 54  9 32 46 56  7 28 42 50  33 34 35 49  9 16 46 57  9 16 46 56  12 36 38 53  2 11 20 54  11 12 36 53  14 15 42 50  14 40 42 51  13 14 40 51  12 13 38 52  2 17 48 55  11 20 36 54  2 20 48 55  25 26 27 41  8 30 44 50  10 34 48 55  4 22 36 54  4 22 36 53  27 28 29 41  18 21 34 35  26 27 28 41  18 19 21 35  28 29 30 43  24 25 26 39  22 24 25 39  30 32 33 47  18 19 21 22  32 33 34 47  0 2 20 54  0 2 20 55  7 14 42 50  7 14 42 51  5 12 38 52  5 12 38 53  30 43 44 45  30 44 45 47  22 36 37 39  21 22 36 37  34 47 48 49  21 34 48 49  1 3 31 33  1 3 23 25  1 3 19 23  1 3 29 31  8 15 44 50  30 42 43 44  26 39 40 41  22 36 38 39  20 21 22 36  20 21 34 48  4 11 36 54  4 11 36 53  6 13 40 51  10 17 48 55  3 31 43 45  3 23 37 39  3 31 45 47  3 21 23 37  28 41 42 43  32 44 46 47  1 3 27 29  1 3 33 35  1 3 19 35  1 3 25 27  32 46 47 48  28 40 41 42  24 38 39 40  30 32 44 47  3 33 47 49  3 21 35 49  26 28 40 41  28 30 42 43  24 26 39 40  22 24 38 39  32 34 47 48  18 20 21 22  18 20 21 34  3 29 41 43  3 25 39 41  3 29 31 43  3 23 25 39  3 31 33 47  3 19 21 23  3 33 35 49  3 27 29 41  3 25 27 41  3 19 21 35  6 24 26 40  10 32 34 48  8 30 32 44  6 26 28 40  6 28 40 51  8 15 44 46  8 15 46 57  8 32 44 46  8 32 46 57  10 17 46 56  10 17 46 48  10 32 46 56  10 32 46 48  6 13 38 52  6 13 38 40  6 24 38 52  6 24 38 40  </DataArray>
<DataArray  type="UInt32"  Name="offsets"  format="ascii">4 8 12 16 20 24 28 32 36 40 44 48 52 56 60 64 68 72 76 80 84 88 92 96 100 104 108 112 116 120 124 128 132 136 140 144 148 152 156 160 164 168 172 176 180 184 188 192 196 200 204 208 212 216 220 224 228 232 236 240 244 248 252 256 260 264 268 272 276 280 284 288 292 296 300 304 308 312 316 320 324 328 332 336 340 344 348 352 356 360 364 368 372 376 380 384 388 392 396 400 404 408 412 416 420 424 428 432 436 440 444 448 452 456 460 464 468 472 476 480 484 488 492 496 500 504 508 512 516 520 524 528 532 536 540 544 548 552 556 560 564 568 572 576 580 584 588 592 </DataArray>
<DataArray  type="UInt8"  Name="types"  format="ascii">10 10 10 10 10 10 10 10 10 10 10 10 10 10 10 10 10 10 10 10 10 10 10 10 10 10 10 10 10 10 10 10 10 10 10 10 10 10 10 10 10 10 10 10 10 10 10 10 10 10 10 10 10 10 10 10 10 10 10 10 10 10 10 10 10 10 10 10 10 10 10 10 10 10 10 10 10 10 10 10 10 10 10 10 10 10 10 10 10 10 10 10 10 10 10 10 10 10 10 10 10 10 10 10 10 10 10 10 10 10 10 10 10 10 10 10 10 10 10 10 10 10 10 10 10 10 10 10 10 10 10 10 10 10 10 10 10 10 10 10 10 10 10 10 10 10 10 10 </DataArray>
</Cells>
<PointData  Vectors="f_37-0"> 
<DataArray  type="Float64"  Name="f_37-0"  NumberOfComponents="3" format="ascii">4.6010137413332271e-02 -2.7326963064002036e-02 0.0000000000000000e+00  -2.6393410754238277e-03 8.1567581793094766e-04 -6.7889193619569063e-02  8.8615059673113880e-02 -2.6244902290285799e-02 0.0000000000000000e+00  -9.4235658592665430e-04 -9.0026663998323832e-04 -1.1986900815090457e-01  5.5668774294099672e-02 1.2340881751295347e-02 0.0000000000000000e+00  2.6394732277083589e-02 4.5152846372133619e-02 0.0000000000000000e+00  -1.6257147831090904e-02 5.4793901438351181e-02 0.0000000000000000e+00  -4.1876271222434959e-02 2.9697335799684081e-02 0.0000000000000000e+00  -5.7621167126014103e-02 -1.2956270112354498e-02 0.0000000000000000e+00  -2.8690230628061857e-02 -4.0070369259692588e-02 0.0000000000000000e+00  1.5209828083898565e-02 -5.5254639584596359e-02 0.0000000000000000e+00  8.2019696320164759e-02 4.5484924599470844e-02 0.0000000000000000e+00  2.6212360396974811e-02 8.8279767086645741e-02 0.0000000000000000e+00  -4.6159226110543086e-02 8.3751059757105839e-02 0.0000000000000000e+00  -8.7929911709329484e-02 2.5002566702209083e-02 0.0000000000000000e+00  -8.3762795851816840e-02 -4.8536288693996267e-02 0.0000000000000000e+00  -2.4813951588772545e-02 -8.8119538883085921e-02 0.0000000000000000e+00  4.6569243237571112e-02 -8.3797347531779240e-02 0.0000000000000000e+00  4.3893932650494696e-02 7.1700359642486297e-03 -5.5409382385898383e-02  1.8914042937548368e-02 2.6704827052746693e-02 -8.7119065787852640e-02  8.8381673426773874e-02 4.2780959371379046e-03 -5.2523575311425791e-02  5.9132120029934523e-02 2.8827329591055866e-02 -1.0060835816880136e-01  2.8047206045957267e-02 3.4917842774516122e-02 -4.6884160971939225e-02  -1.0516550982480338e-02 2.6675525038318517e-02 -7.4362678826637552e-02  -1.1275823737925584e-02 4.6225917684882691e-02 -5.2925225399333142e-02  -3.4505407249136782e-02 1.6494231524686938e-02 -8.1566911087858782e-02  -4.0337472569179980e-02 2.7245341415470657e-02 -4.4816182856551562e-02  -3.2502274997668681e-02 -1.0236807912790337e-02 -8.7657168455618967e-02  -4.4768686415088819e-02 -1.3116001264017728e-02 -5.0609786443102663e-02  -1.5038427647646405e-02 -2.7054660731633384e-02 -8.5157901079560144e-02  -1.9970442724668969e-02 -4.0591978182136633e-02 -4.5092027503991834e-02  1.4813975190554139e-02 -2.9544346574526290e-02 -7.4359746392141435e-02  9.5005925819436586e-03 -5.0739319821756140e-02 -5.2857683894306312e-02  3.2664333462961118e-02 -1.4806910049812766e-02 -7.9997088690567097e-02  3.5591064679761981e-02 -3.0295492685153455e-02 -4.8067995608610796e-02  3.3601182502923731e-02 6.9030815182767359e-03 -8.3017809804913203e-02  6.2441079407022149e-02 6.7159955206457164e-02 -5.3465602776489971e-02  2.1360909895835278e-02 6.0668234096006017e-02 -1.0208719416687802e-01  -4.3515530324312601e-03 8.9484267953668511e-02 -5.2844000988682804e-02  -2.8197260047123220e-02 6.0300564797094287e-02 -1.0099419313999572e-01  -6.5120723779319850e-02 6.0163824648148755e-02 -5.2702296735795767e-02  -6.0805804501767521e-02 2.0997425561033130e-02 -1.0018863757861653e-01  -8.9871661584686541e-02 -3.9297407025695964e-03 -5.2784324357514040e-02  -5.8827384915116875e-02 -2.8389333810390410e-02 -1.0108198692799041e-01  -6.0500373697828611e-02 -6.6422809472562863e-02 -5.3072758057522450e-02  -2.0967037982582575e-02 -5.9612445999401589e-02 -1.0173470975805282e-01  4.0355579433335219e-03 -9.1591554961978253e-02 -5.3106475519073305e-02  2.8144626201297436e-02 -6.1661240008454896e-02 -1.0261038320238300e-01  6.6305772984583164e-02 -6.1890437472806814e-02 -5.3261529313047798e-02  5.9609796140665611e-02 -2.1401470458462565e-02 -1.0198245517616433e-01  -8.0910614261844038e-02 -4.8859347058683765e-03 0.0000000000000000e+00  -5.8581171919462750e-02 5.1854939188303098e-02 0.0000000000000000e+00  -5.0371268461622785e-03 7.7171959305610285e-02 0.0000000000000000e+00  5.3275228611027799e-02 5.9305008385030354e-02 0.0000000000000000e+00  8.0007665365218264e-02 4.5208376660447261e-03 0.0000000000000000e+00  5.9362222852996173e-02 -5.3189331333164995e-02 0.0000000000000000e+00  5.0283933874479252e-03 -7.7218419210469944e-02 0.0000000000000000e+00  -5.2277827169969419e-02 -5.7668853671623548e-02 0.0000000000000000e+00  </DataArray> 
</PointData> 
</Piece>
</UnstructuredGrid>
</VTKFile>