<?xml version="1.0"?>
<VTKFile type="UnstructuredGrid"  version="0.1"  >
<UnstructuredGrid>
<Piece  NumberOfPoints="58" NumberOfCells="148">
<Points>
<DataArray  type="Float64"  NumberOfComponents="3"  format="ascii">0.4023249999999999 0 0  0 0 -0.8046499999999999  0.266805 0 0  0 0 -0.6691299999999999  0.2844867357408777 0.2844867357408777 0  2.775557561562891e-17 0.4023249999999999 0  -0.2844867357408777 0.2844867357408777 0  -0.4023249999999999 2.775557561562891e-17 0  -0.2844867357408777 -0.2844867357408777 0  -2.775557561562891e-17 -0.4023249999999999 0  0.2844867357408777 -0.2844867357408777 0  0.1886596247544768 0.1886596247544768 0  2.775557561562891e-17 0.266805 0  -0.1886596247544767 0.1886596247544768 0  -0.266805 8.326672684688674e-17 0  -0.1886596247544768 -0.1886596247544767 0  -1.387778780781446e-16 -0.266805 0  0.1886596247544766 -0.1886596247544769 0  0.3686082568662342 0 -0.3224491190562394  0.2536108874396318 0 -0.6246500569025265  0.2466044134321161 0 -0.2554056152626437  0.1766587270840894 0 -0.5014405794480644  0.2606453980314651 0.2606453980314651 -0.3224491190562516  0.1793299782912967 0.1793299782912967 -0.6246500569025382  2.542952674080888e-17 0.3686082568662342 -0.3224491190562394  1.749609435972772e-17 0.2536108874396318 -0.6246500569025265  -0.2606453980314651 0.2606453980314651 -0.3224491190562516  -0.1793299782912967 0.1793299782912967 -0.6246500569025382  -0.3686082568662342 2.542952674080888e-17 -0.3224491190562394  -0.2536108874396318 1.749609435972772e-17 -0.6246500569025265  -0.2606453980314651 -0.2606453980314651 -0.3224491190562516  -0.1793299782912967 -0.1793299782912967 -0.6246500569025382  -2.542952674080888e-17 -0.3686082568662342 -0.3224491190562394  -1.749609435972772e-17 -0.2536108874396318 -0.6246500569025265  0.2606453980314651 -0.2606453980314651 -0.3224491190562516  0.1793299782912967 -0.1793299782912967 -0.6246500569025382  0.1743756530083801 0.17437565300838 -0.2554056152626451  0.1249165838769436 0.1249165838769436 -0.5014405794480633  2.565411984094344e-17 0.2466044134321161 -0.2554056152626437  1.837770902997769e-17 0.1766587270840894 -0.5014405794480644  -0.1743756530083802 0.1743756530083803 -0.2554056152626436  -0.1249165838769431 0.1249165838769432 -0.5014405794480646  -0.2466044134321161 7.696235952283031e-17 -0.2554056152626437  -0.1766587270840894 5.513312708993305e-17 -0.5014405794480644  -0.1743756530083802 -0.17437565300838 -0.2554056152626445  -0.1249165838769429 -0.1249165838769428 -0.5014405794480657  -1.282705992047172e-16 -0.2466044134321161 -0.2554056152626437  -9.188854514988842e-17 -0.1766587270840894 -0.5014405794480644  0.1743756530083804 -0.1743756530083806 -0.2554056152626407  0.1249165838769432 -0.1249165838769434 -0.5014405794480641  -0.2855690901238386 -0.1182865901238386 0  -0.2855690901238385 0.1182865901238386 0  -0.1182865901238386 0.2855690901238386 -0  0.1182865901238386 0.2855690901238386 0  0.2855690901238386 0.1182865901238386 0  0.2855690901238386 -0.1182865901238386 0  0.1182865901238385 -0.2855690901238386 0  -0.1182865901238387 -0.2855690901238386 0  </DataArray>
</Points>
<Cells>
<DataArray  type="UInt32"  Name="connectivity"  format="ascii">5 6 24 52  8 9 32 57  7 8 28 50  9 10 32 56  0 4 18 54  6 7 28 51  0 10 18 55  4 5 24 53  10 18 34 55  4 18 22 54  4 22 24 53  8 28 30 50  30 42 44 50  22 23 37 39  21 22 23 37  30 31 43 45  30 31 45 47  20 34 48 55  22 36 38 53  20 22 36 54  28 40 42 51  21 34 35 49  33 34 47 49  16 17 46 56  15 16 46 57  25 26 39 41  22 24 38 53  18 20 34 55  18 20 22 54  28 30 42 50  29 30 31 43  22 23 25 39  19 21 22 23  30 31 33 47  28 29 41 43  15 42 44 50  9 32 46 57  0 18 20 55  5 24 38 52  7 28 42 51  5 24 38 53  0 18 20 54  9 32 46 56  7 28 42 50  33 34 35 49  9 16 46 57  9 16 46 56  12 36 38 53  2 11 20 54  11 12 36 53  14 15 42 50  14 40 42 51  13 14 40 51  12 13 38 52  2 17 48 55  11 20 36 54  2 20 48 55  25 26 27 41  8 30 44 50  10 34 48 55  4 22 36 54  4 22 36 53  27 28 29 41  18 21 34 35  26 27 28 41  18 19 21 35  28 29 30 43  24 25 26 39  22 24 25 39  30 32 33 47  18 19 21 22  32 33 34 47  0 2 20 54  0 2 20 55  7 14 42 50  7 14 42 51  5 12 38 52  5 12 38 53  30 43 44 45  30 44 45 47  22 36 37 39  21 22 36 37  34 47 48 49  21 34 48 49  1 3 31 33  1 3 23 25  1 3 19 23  1 3 29 31  8 15 44 50  30 42 43 44  26 39 40 41  22 36 38 39  20 21 22 36  20 21 34 48  4 11 36 54  4 11 36 53  6 13 40 51  10 17 48 55  3 31 43 45  3 23 37 39  3 31 45 47  3 21 23 37  28 41 42 43  32 44 46 47  1 3 27 29  1 3 33 35  1 3 19 35  1 3 25 27  32 46 47 48  28 40 41 42  24 38 39 40  30 32 44 47  3 33 47 49  3 21 35 49  26 28 40 41  28 30 42 43  24 26 39 40  22 24 38 39  32 34 47 48  18 20 21 22  18 20 21 34  3 29 41 43  3 25 39 41  3 29 31 43  3 23 25 39  3 31 33 47  3 19 21 23  3 33 35 49  3 27 29 41  3 25 27 41  3 19 21 35  6 24 26 40  10 32 34 48  8 30 32 44  6 26 28 40  6 28 40 51  8 15 44 46  8 15 46 57  8 32 44 46  8 32 46 57  10 17 46 56  10 17 46 48  10 32 46 56  10 32 46 48  6 13 38 52  6 13 38 40  6 24 38 52  6 24 38 40  </DataArray>
<DataArray  type="UInt32"  Name="offsets"  format="ascii">4 8 12 16 20 24 28 32 36 40 44 48 52 56 60 64 68 72 76 80 84 88 92 96 100 104 108 112 116 120 124 128 132 136 140 144 148 152 156 160 164 168 172 176 180 184 188 192 196 200 204 208 212 216 220 224 228 232 236 240 244 248 252 256 260 264 268 272 276 280 284 288 292 296 300 304 308 312 316 320 324 328 332 336 340 344 348 352 356 360 364 368 372 376 380 384 388 392 396 400 404 408 412 416 420 424 428 432 436 440 444 448 452 456 460 464 468 472 476 480 484 488 492 496 500 504 508 512 516 520 524 528 532 536 540 544 548 552 556 560 564 568 572 576 580 584 588 592 </DataArray>
<DataArray  type="UInt8"  Name="types"  format="ascii">10 10 10 10 10 10 10 10 10 10 10 10 10 10 10 10 10 10 10 10 10 10 10 10 10 10 10 10 10 10 10 10 10 10 10 10 10 10 10 10 10 10 10 10 10 10 10 10 10 10 10 10 10 10 10 10 10 10 10 10 10 10 10 10 10 10 10 10 10 10 10 10 10 10 10 10 10 10 10 10 10 10 10 10 10 10 10 10 10 10 10 10 10 10 10 10 10 10 10 10 10 10 10 10 10 10 10 10 10 10 10 10 10 10 10 10 10 10 10 10 10 10 10 10 10 10 10 10 10 10 10 10 10 10 10 10 10 10 10 10 10 10 10 10 10 10 10 10 </DataArray>
</Cells>
<PointData  Vectors="f_37-0"> 
<DataArray  type="Float64"  Name="f_37-0"  NumberOfComponents="3" format="ascii">2.0484945701288230e-02 -1.0579900904822808e-02 0.0000000000000000e+00  -2.0764323902247554e-04 1.2900261657081675e-04 -1.9339790329149634e-02  3.3945800812459584e-02 -9.1628410575185278e-03 0.0000000000000000e+00  4.0896705311292155e-05 2.7657394717973116e-05 -2.3942236654780142e-02  2.4115748201159800e-02 8.4907041397644135e-03 0.0000000000000000e+00  1.0782843821990703e-02 2.0836655280258999e-02 0.0000000000000000e+00  -8.0939001626624367e-03 2.3902735935623972e-02 0.0000000000000000e+00  -2.0393741920762237e-02 1.0984733027136288e-02 0.0000000000000000e+00  -2.3998252814586944e-02 -8.6928574514269080e-03 0.0000000000000000e+00  -1.1054637250865886e-02 -1.9694526521300180e-02 0.0000000000000000e+00  7.5260955075896674e-03 -2.3618004210420599e-02 0.0000000000000000e+00  3.1891551404712559e-02 1.8912833217636517e-02 0.0000000000000000e+00  9.4053396026766347e-03 3.4162466028597294e-02 0.0000000000000000e+00  -1.8671897920555656e-02 3.2583528112020484e-02 0.0000000000000000e+00  -3.4072643594189135e-02 9.1665800015228588e-03 0.0000000000000000e+00  -3.2061669785264091e-02 -1.9921109013096655e-02 0.0000000000000000e+00  -8.8515398220537170e-03 -3.4236332910440474e-02 0.0000000000000000e+00  1.8596715189810910e-02 -3.2229396875518498e-02 0.0000000000000000e+00  1.7645777453051632e-02 2.8267959197764594e-03 -1.4493348636809565e-02  4.7509826317246326e-03 1.1309325419869079e-02 -2.1793035305882412e-02  3.3284384897670237e-02 1.3749110316897233e-03 -1.3289840958039128e-02  1.9954103111263371e-02 8.9929035549335384e-03 -2.3506820738738513e-02  1.1138871491245808e-02 1.4719532314546235e-02 -1.3757724582470290e-02  -4.5529617757995976e-03 1.1485661098752539e-02 -2.1794898374046235e-02  -3.1099410190926326e-03 1.7953837640515061e-02 -1.4127651904281618e-02  -1.2374054922475692e-02 4.2313606876838994e-03 -2.1770589312673089e-02  -1.4972564411965723e-02 9.7193299639107781e-03 -1.3045540486514219e-02  -1.1364668786834268e-02 -4.8663037449043975e-03 -2.1606790693768887e-02  -1.8410935648829448e-02 -3.4164534227165023e-03 -1.3983398277679516e-02  -4.5055182853214653e-03 -1.0909119069467631e-02 -2.1962598476031273e-02  -9.8773263206458732e-03 -1.5071430706528872e-02 -1.3205924824351904e-02  4.8381389183126695e-03 -1.1542948278593682e-02 -2.1732769430488047e-02  3.0614246669564060e-03 -1.8206416091560096e-02 -1.4075374130501049e-02  1.2583611104433094e-02 -4.4050352591663592e-03 -2.2207896867288239e-02  1.4558478939399449e-02 -1.0558389224874912e-02 -1.3789378812176005e-02  1.1397471340748042e-02 4.5145654929807915e-03 -2.2014995631057376e-02  2.3478126079264344e-02 2.4895021516783938e-02 -1.3815132837403316e-02  8.4275270250989930e-03 2.0453593203391591e-02 -2.4133175184225385e-02  -1.1930583437478495e-03 3.3743528719476411e-02 -1.3452695493313696e-02  -8.3454802083994580e-03 2.0297342712242889e-02 -2.3837268268320791e-02  -2.3947377072026110e-02 2.2489873080059373e-02 -1.3342081376277867e-02  -2.0040426495104423e-02 7.4134597166218017e-03 -2.3626733365632077e-02  -3.3925408028574619e-02 -1.0501436084319109e-03 -1.3759988616713030e-02  -2.0199553043508789e-02 -9.0384318335617730e-03 -2.3759955629025675e-02  -2.3386712335840911e-02 -2.4495857755257439e-02 -1.3823800275742737e-02  -8.2151953154442122e-03 -2.0139351904870414e-02 -2.4566049837514720e-02  8.6481555118475984e-04 -3.4438500312013093e-02 -1.3872123837313202e-02  8.5099928609961590e-03 -2.0537892622814958e-02 -2.4237754801555426e-02  2.4505677920553224e-02 -2.2898221388078042e-02 -1.3836165522912025e-02  2.0093882392345039e-02 -7.9329104170692468e-03 -2.4538159243411163e-02  -3.1148189245690749e-02 -2.9739996766891966e-03 0.0000000000000000e+00  -2.3522522572847634e-02 1.9375013308834396e-02 0.0000000000000000e+00  -3.1012735641233460e-03 3.0729076476643722e-02 0.0000000000000000e+00  1.9689625245976405e-02 2.4151079636606104e-02 0.0000000000000000e+00  3.0715085652035377e-02 3.0865581946149198e-03 0.0000000000000000e+00  2.3801929719479767e-02 -1.9462177700365547e-02 0.0000000000000000e+00  2.9630465154887424e-03 -3.0171946840421307e-02 0.0000000000000000e+00  -1.9629288845041275e-02 -2.3616768232664714e-02 0.0000000000000000e+00  </DataArray> 
</PointData> 
</Piece>
</UnstructuredGrid>
</VTKFile>