<?xml version="1.0"?>
<VTKFile type="UnstructuredGrid"  version="0.1"  >
<UnstructuredGrid>
<Piece  NumberOfPoints="58" NumberOfCells="148">
<Points>
<DataArray  type="Float64"  NumberOfComponents="3"  format="ascii">0.4023249999999999 0 0  0 0 -0.8046499999999999  0.266805 0 0  0 0 -0.6691299999999999  0.2844867357408777 0.2844867357408777 0  2.775557561562891e-17 0.4023249999999999 0  -0.2844867357408777 0.2844867357408777 0  -0.4023249999999999 2.775557561562891e-17 0  -0.2844867357408777 -0.2844867357408777 0  -2.775557561562891e-17 -0.4023249999999999 0  0.2844867357408777 -0.2844867357408777 0  0.1886596247544768 0.1886596247544768 0  2.775557561562891e-17 0.266805 0  -0.1886596247544767 0.1886596247544768 0  -0.266805 8.326672684688674e-17 0  -0.1886596247544768 -0.1886596247544767 0  -1.387778780781446e-16 -0.266805 0  0.1886596247544766 -0.1886596247544769 0  0.3686082568662342 0 -0.3224491190562394  0.2536108874396318 0 -0.6246500569025265  0.2466044134321161 0 -0.2554056152626437  0.1766587270840894 0 -0.5014405794480644  0.2606453980314651 0.2606453980314651 -0.3224491190562516  0.1793299782912967 0.1793299782912967 -0.6246500569025382  2.542952674080888e-17 0.3686082568662342 -0.3224491190562394  1.749609435972772e-17 0.2536108874396318 -0.6246500569025265  -0.2606453980314651 0.2606453980314651 -0.3224491190562516  -0.1793299782912967 0.1793299782912967 -0.6246500569025382  -0.3686082568662342 2.542952674080888e-17 -0.3224491190562394  -0.2536108874396318 1.749609435972772e-17 -0.6246500569025265  -0.2606453980314651 -0.2606453980314651 -0.3224491190562516  -0.1793299782912967 -0.1793299782912967 -0.6246500569025382  -2.542952674080888e-17 -0.3686082568662342 -0.3224491190562394  -1.749609435972772e-17 -0.2536108874396318 -0.6246500569025265  0.2606453980314651 -0.2606453980314651 -0.3224491190562516  0.1793299782912967 -0.1793299782912967 -0.6246500569025382  0.1743756530083801 0.17437565300838 -0.2554056152626451  0.1249165838769436 0.1249165838769436 -0.5014405794480633  2.565411984094344e-17 0.2466044134321161 -0.2554056152626437  1.837770902997769e-17 0.1766587270840894 -0.5014405794480644  -0.1743756530083802 0.1743756530083803 -0.2554056152626436  -0.1249165838769431 0.1249165838769432 -0.5014405794480646  -0.2466044134321161 7.696235952283031e-17 -0.2554056152626437  -0.1766587270840894 5.513312708993305e-17 -0.5014405794480644  -0.1743756530083802 -0.17437565300838 -0.2554056152626445  -0.1249165838769429 -0.1249165838769428 -0.5014405794480657  -1.282705992047172e-16 -0.2466044134321161 -0.2554056152626437  -9.188854514988842e-17 -0.1766587270840894 -0.5014405794480644  0.1743756530083804 -0.1743756530083806 -0.2554056152626407  0.1249165838769432 -0.1249165838769434 -0.5014405794480641  -0.2855690901238386 -0.1182865901238386 0  -0.2855690901238385 0.1182865901238386 0  -0.1182865901238386 0.2855690901238386 -0  0.1182865901238386 0.2855690901238386 0  0.2855690901238386 0.1182865901238386 0  0.2855690901238386 -0.1182865901238386 0  0.1182865901238385 -0.2855690901238386 0  -0.1182865901238387 -0.2855690901238386 0  </DataArray>
</Points>
<Cells>
<DataArray  type="UInt32"  Name="connectivity"  format="ascii">5 6 24 52  8 9 32 57  7 8 28 50  9 10 32 56  0 4 18 54  6 7 28 51  0 10 18 55  4 5 24 53  10 18 34 55  4 18 22 54  4 22 24 53  8 28 30 50  30 42 44 50  22 23 37 39  21 22 23 37  30 31 43 45  30 31 45 47  20 34 48 55  22 36 38 53  20 22 36 54  28 40 42 51  21 34 35 49  33 34 47 49  16 17 46 56  15 16 46 57  25 26 39 41  22 24 38 53  18 20 34 55  18 20 22 54  28 30 42 50  29 30 31 43  22 23 25 39  19 21 22 23  30 31 33 47  28 29 41 43  15 42 44 50  9 32 46 57  0 18 20 55  5 24 38 52  7 28 42 51  5 24 38 53  0 18 20 54  9 32 46 56  7 28 42 50  33 34 35 49  9 16 46 57  9 16 46 56  12 36 38 53  2 11 20 54  11 12 36 53  14 15 42 50  14 40 42 51  13 14 40 51  12 13 38 52  2 17 48 55  11 20 36 54  2 20 48 55  25 26 27 41  8 30 44 50  10 34 48 55  4 22 36 54  4 22 36 53  27 28 29 41  18 21 34 35  26 27 28 41  18 19 21 35  28 29 30 43  24 25 26 39  22 24 25 39  30 32 33 47  18 19 21 22  32 33 34 47  0 2 20 54  0 2 20 55  7 14 42 50  7 14 42 51  5 12 38 52  5 12 38 53  30 43 44 45  30 44 45 47  22 36 37 39  21 22 36 37  34 47 48 49  21 34 48 49  1 3 31 33  1 3 23 25  1 3 19 23  1 3 29 31  8 15 44 50  30 42 43 44  26 39 40 41  22 36 38 39  20 21 22 36  20 21 34 48  4 11 36 54  4 11 36 53  6 13 40 51  10 17 48 55  3 31 43 45  3 23 37 39  3 31 45 47  3 21 23 37  28 41 42 43  32 44 46 47  1 3 27 29  1 3 33 35  1 3 19 35  1 3 25 27  32 46 47 48  28 40 41 42  24 38 39 40  30 32 44 47  3 33 47 49  3 21 35 49  26 28 40 41  28 30 42 43  24 26 39 40  22 24 38 39  32 34 47 48  18 20 21 22  18 20 21 34  3 29 41 43  3 25 39 41  3 29 31 43  3 23 25 39  3 31 33 47  3 19 21 23  3 33 35 49  3 27 29 41  3 25 27 41  3 19 21 35  6 24 26 40  10 32 34 48  8 30 32 44  6 26 28 40  6 28 40 51  8 15 44 46  8 15 46 57  8 32 44 46  8 32 46 57  10 17 46 56  10 17 46 48  10 32 46 56  10 32 46 48  6 13 38 52  6 13 38 40  6 24 38 52  6 24 38 40  </DataArray>
<DataArray  type="UInt32"  Name="offsets"  format="ascii">4 8 12 16 20 24 28 32 36 40 44 48 52 56 60 64 68 72 76 80 84 88 92 96 100 104 108 112 116 120 124 128 132 136 140 144 148 152 156 160 164 168 172 176 180 184 188 192 196 200 204 208 212 216 220 224 228 232 236 240 244 248 252 256 260 264 268 272 276 280 284 288 292 296 300 304 308 312 316 320 324 328 332 336 340 344 348 352 356 360 364 368 372 376 380 384 388 392 396 400 404 408 412 416 420 424 428 432 436 440 444 448 452 456 460 464 468 472 476 480 484 488 492 496 500 504 508 512 516 520 524 528 532 536 540 544 548 552 556 560 564 568 572 576 580 584 588 592 </DataArray>
<DataArray  type="UInt8"  Name="types"  format="ascii">10 10 10 10 10 10 10 10 10 10 10 10 10 10 10 10 10 10 10 10 10 10 10 10 10 10 10 10 10 10 10 10 10 10 10 10 10 10 10 10 10 10 10 10 10 10 10 10 10 10 10 10 10 10 10 10 10 10 10 10 10 10 10 10 10 10 10 10 10 10 10 10 10 10 10 10 10 10 10 10 10 10 10 10 10 10 10 10 10 10 10 10 10 10 10 10 10 10 10 10 10 10 10 10 10 10 10 10 10 10 10 10 10 10 10 10 10 10 10 10 10 10 10 10 10 10 10 10 10 10 10 10 10 10 10 10 10 10 10 10 10 10 10 10 10 10 10 10 </DataArray>
</Cells>
<PointData  Vectors="f_37-0"> 
<DataArray  type="Float64"  Name="f_37-0"  NumberOfComponents="3" format="ascii">2.2871330862946845e-02 -1.1893207792497097e-02 0.0000000000000000e+00  -2.5116628193038229e-04 1.5393610803413670e-04 -2.3602595171209897e-02  3.8138130440531610e-02 -1.0331032224632488e-02 0.0000000000000000e+00  3.5067516079227735e-05 1.0003226562589523e-05 -2.9519234803085721e-02  2.6921514304524170e-02 9.3420174834698277e-03 0.0000000000000000e+00  1.2071124538249737e-02 2.3255893603556798e-02 0.0000000000000000e+00  -8.9278767443589195e-03 2.6654701431484490e-02 0.0000000000000000e+00  -2.2740118330339745e-02 1.2370346455378954e-02 0.0000000000000000e+00  -2.6775082347853613e-02 -9.5787016338789426e-03 0.0000000000000000e+00  -1.2408421305392684e-02 -2.1970372352962987e-02 0.0000000000000000e+00  8.3139351726025535e-03 -2.6360491921471822e-02 0.0000000000000000e+00  3.5731494910590390e-02 2.1099124914456969e-02 0.0000000000000000e+00  1.0592962927370058e-02 3.8345174344137298e-02 0.0000000000000000e+00  -2.0897655009483769e-02 3.6488988552647775e-02 0.0000000000000000e+00  -3.8244751516873565e-02 1.0312490198507182e-02 0.0000000000000000e+00  -3.5993622959817957e-02 -2.2222591659831960e-02 0.0000000000000000e+00  -1.0009032634197999e-02 -3.8407918315238092e-02 0.0000000000000000e+00  2.0820597302373428e-02 -3.6121414935518695e-02 0.0000000000000000e+00  1.9832271614529461e-02 3.2153986600317323e-03 -1.7021278670453544e-02  5.5998166240404769e-03 1.2936200293394070e-02 -2.6037775724161695e-02  3.7509665627060630e-02 1.5858582344924013e-03 -1.5750329129307905e-02  2.2922330015701497e-02 1.0399132144198549e-02 -2.8325312329814580e-02  1.2467964578180047e-02 1.6549094742304333e-02 -1.6080627395616841e-02  -5.1228695752240164e-03 1.3206690549597838e-02 -2.5932725484367196e-02  -3.5977328677866075e-03 2.0195070766654118e-02 -1.6587700773167020e-02  -1.4191138788738105e-02 5.0434348258353206e-03 -2.5985320163885516e-02  -1.6948475437312281e-02 1.0881166529500516e-02 -1.5280080713594534e-02  -1.3154653602373365e-02 -5.4866135223651576e-03 -2.5858052574948394e-02  -2.0661322949360839e-02 -3.9529666514512181e-03 -1.6393939235173662e-02  -5.3223759754366011e-03 -1.2479894403735587e-02 -2.6225809374025466e-02  -1.0994919229889497e-02 -1.7027057938119275e-02 -1.5430355906893836e-02  5.4996374784259871e-03 -1.3307140918570742e-02 -2.5836408146295863e-02  3.5499412112379061e-03 -2.0526125764159832e-02 -1.6540998176977854e-02  1.4412280807397483e-02 -5.2221779177108437e-03 -2.6445744133909703e-02  1.6429656680877765e-02 -1.1864810342235447e-02 -1.6135631897978925e-02  1.3183078898268802e-02 5.0537797015724273e-03 -2.6262023252673072e-02  2.6436538229491890e-02 2.8087507187190705e-02 -1.6346686858990062e-02  9.5554065121073901e-03 2.3499564231246110e-02 -2.9007229017985334e-02  -1.3840194225797763e-03 3.8034569937670890e-02 -1.5934809499068815e-02  -9.6942945838527934e-03 2.3305731061634732e-02 -2.8685757318833188e-02  -2.7075853815709223e-02 2.5349960660729212e-02 -1.5818417563147724e-02  -2.3063327761373986e-02 8.4909487551836377e-03 -2.8436241980512277e-02  -3.8226486598306048e-02 -1.2445890921009284e-03 -1.6253233202281597e-02  -2.3164176107541252e-02 -1.0465284390660790e-02 -2.8600900235693186e-02  -2.6283717800707970e-02 -2.7645907502292129e-02 -1.6342224371775280e-02  -9.3175379892808906e-03 -2.3119722174206075e-02 -2.9458585643294052e-02  1.0625303582472180e-03 -3.8803226590410335e-02 -1.6378303904732470e-02  9.8627923734835275e-03 -2.3578807029858439e-02 -2.9135120959603692e-02  2.7686148068082981e-02 -2.5830328374764355e-02 -1.6356590736688829e-02  2.3084771849903915e-02 -9.0171657939159978e-03 -2.9431915507864941e-02  -3.4931083928509007e-02 -3.2337183438262956e-03 0.0000000000000000e+00  -2.6275145404686347e-02 2.1789967250802584e-02 0.0000000000000000e+00  -3.3788340283048370e-03 3.4373166300546244e-02 0.0000000000000000e+00  2.2157894962217102e-02 2.6987923029256209e-02 0.0000000000000000e+00  3.4440864892498368e-02 3.3306231125422095e-03 0.0000000000000000e+00  2.6614232789256141e-02 -2.1917347373716981e-02 0.0000000000000000e+00  3.2274059875771768e-03 -3.3793422261614706e-02 0.0000000000000000e+00  -2.2064484774138166e-02 -2.6383424011940253e-02 0.0000000000000000e+00  </DataArray> 
</PointData> 
</Piece>
</UnstructuredGrid>
</VTKFile>