<?xml version="1.0"?>
<VTKFile type="UnstructuredGrid"  version="0.1"  >
<UnstructuredGrid>
<Piece  NumberOfPoints="58" NumberOfCells="148">
<Points>
<DataArray  type="Float64"  NumberOfComponents="3"  format="ascii">0.4023249999999999 0 0  0 0 -0.8046499999999999  0.266805 0 0  0 0 -0.6691299999999999  0.2844867357408777 0.2844867357408777 0  2.775557561562891e-17 0.4023249999999999 0  -0.2844867357408777 0.2844867357408777 0  -0.4023249999999999 2.775557561562891e-17 0  -0.2844867357408777 -0.2844867357408777 0  -2.775557561562891e-17 -0.4023249999999999 0  0.2844867357408777 -0.2844867357408777 0  0.1886596247544768 0.1886596247544768 0  2.775557561562891e-17 0.266805 0  -0.1886596247544767 0.1886596247544768 0  -0.266805 8.326672684688674e-17 0  -0.1886596247544768 -0.1886596247544767 0  -1.387778780781446e-16 -0.266805 0  0.1886596247544766 -0.1886596247544769 0  0.3686082568662342 0 -0.3224491190562394  0.2536108874396318 0 -0.6246500569025265  0.2466044134321161 0 -0.2554056152626437  0.1766587270840894 0 -0.5014405794480644  0.2606453980314651 0.2606453980314651 -0.3224491190562516  0.1793299782912967 0.1793299782912967 -0.6246500569025382  2.542952674080888e-17 0.3686082568662342 -0.3224491190562394  1.749609435972772e-17 0.2536108874396318 -0.6246500569025265  -0.2606453980314651 0.2606453980314651 -0.3224491190562516  -0.1793299782912967 0.1793299782912967 -0.6246500569025382  -0.3686082568662342 2.542952674080888e-17 -0.3224491190562394  -0.2536108874396318 1.749609435972772e-17 -0.6246500569025265  -0.2606453980314651 -0.2606453980314651 -0.3224491190562516  -0.1793299782912967 -0.1793299782912967 -0.6246500569025382  -2.542952674080888e-17 -0.3686082568662342 -0.3224491190562394  -1.749609435972772e-17 -0.2536108874396318 -0.6246500569025265  0.2606453980314651 -0.2606453980314651 -0.3224491190562516  0.1793299782912967 -0.1793299782912967 -0.6246500569025382  0.1743756530083801 0.17437565300838 -0.2554056152626451  0.1249165838769436 0.1249165838769436 -0.5014405794480633  2.565411984094344e-17 0.2466044134321161 -0.2554056152626437  1.837770902997769e-17 0.1766587270840894 -0.5014405794480644  -0.1743756530083802 0.1743756530083803 -0.2554056152626436  -0.1249165838769431 0.1249165838769432 -0.5014405794480646  -0.2466044134321161 7.696235952283031e-17 -0.2554056152626437  -0.1766587270840894 5.513312708993305e-17 -0.5014405794480644  -0.1743756530083802 -0.17437565300838 -0.2554056152626445  -0.1249165838769429 -0.1249165838769428 -0.5014405794480657  -1.282705992047172e-16 -0.2466044134321161 -0.2554056152626437  -9.188854514988842e-17 -0.1766587270840894 -0.5014405794480644  0.1743756530083804 -0.1743756530083806 -0.2554056152626407  0.1249165838769432 -0.1249165838769434 -0.5014405794480641  -0.2855690901238386 -0.1182865901238386 0  -0.2855690901238385 0.1182865901238386 0  -0.1182865901238386 0.2855690901238386 -0  0.1182865901238386 0.2855690901238386 0  0.2855690901238386 0.1182865901238386 0  0.2855690901238386 -0.1182865901238386 0  0.1182865901238385 -0.2855690901238386 0  -0.1182865901238387 -0.2855690901238386 0  </DataArray>
</Points>
<Cells>
<DataArray  type="UInt32"  Name="connectivity"  format="ascii">5 6 24 52  8 9 32 57  7 8 28 50  9 10 32 56  0 4 18 54  6 7 28 51  0 10 18 55  4 5 24 53  10 18 34 55  4 18 22 54  4 22 24 53  8 28 30 50  30 42 44 50  22 23 37 39  21 22 23 37  30 31 43 45  30 31 45 47  20 34 48 55  22 36 38 53  20 22 36 54  28 40 42 51  21 34 35 49  33 34 47 49  16 17 46 56  15 16 46 57  25 26 39 41  22 24 38 53  18 20 34 55  18 20 22 54  28 30 42 50  29 30 31 43  22 23 25 39  19 21 22 23  30 31 33 47  28 29 41 43  15 42 44 50  9 32 46 57  0 18 20 55  5 24 38 52  7 28 42 51  5 24 38 53  0 18 20 54  9 32 46 56  7 28 42 50  33 34 35 49  9 16 46 57  9 16 46 56  12 36 38 53  2 11 20 54  11 12 36 53  14 15 42 50  14 40 42 51  13 14 40 51  12 13 38 52  2 17 48 55  11 20 36 54  2 20 48 55  25 26 27 41  8 30 44 50  10 34 48 55  4 22 36 54  4 22 36 53  27 28 29 41  18 21 34 35  26 27 28 41  18 19 21 35  28 29 30 43  24 25 26 39  22 24 25 39  30 32 33 47  18 19 21 22  32 33 34 47  0 2 20 54  0 2 20 55  7 14 42 50  7 14 42 51  5 12 38 52  5 12 38 53  30 43 44 45  30 44 45 47  22 36 37 39  21 22 36 37  34 47 48 49  21 34 48 49  1 3 31 33  1 3 23 25  1 3 19 23  1 3 29 31  8 15 44 50  30 42 43 44  26 39 40 41  22 36 38 39  20 21 22 36  20 21 34 48  4 11 36 54  4 11 36 53  6 13 40 51  10 17 48 55  3 31 43 45  3 23 37 39  3 31 45 47  3 21 23 37  28 41 42 43  32 44 46 47  1 3 27 29  1 3 33 35  1 3 19 35  1 3 25 27  32 46 47 48  28 40 41 42  24 38 39 40  30 32 44 47  3 33 47 49  3 21 35 49  26 28 40 41  28 30 42 43  24 26 39 40  22 24 38 39  32 34 47 48  18 20 21 22  18 20 21 34  3 29 41 43  3 25 39 41  3 29 31 43  3 23 25 39  3 31 33 47  3 19 21 23  3 33 35 49  3 27 29 41  3 25 27 41  3 19 21 35  6 24 26 40  10 32 34 48  8 30 32 44  6 26 28 40  6 28 40 51  8 15 44 46  8 15 46 57  8 32 44 46  8 32 46 57  10 17 46 56  10 17 46 48  10 32 46 56  10 32 46 48  6 13 38 52  6 13 38 40  6 24 38 52  6 24 38 40  </DataArray>
<DataArray  type="UInt32"  Name="offsets"  format="ascii">4 8 12 16 20 24 28 32 36 40 44 48 52 56 60 64 68 72 76 80 84 88 92 96 100 104 108 112 116 120 124 128 132 136 140 144 148 152 156 160 164 168 172 176 180 184 188 192 196 200 204 208 212 216 220 224 228 232 236 240 244 248 252 256 260 264 268 272 276 280 284 288 292 296 300 304 308 312 316 320 324 328 332 336 340 344 348 352 356 360 364 368 372 376 380 384 388 392 396 400 404 408 412 416 420 424 428 432 436 440 444 448 452 456 460 464 468 472 476 480 484 488 492 496 500 504 508 512 516 520 524 528 532 536 540 544 548 552 556 560 564 568 572 576 580 584 588 592 </DataArray>
<DataArray  type="UInt8"  Name="types"  format="ascii">10 10 10 10 10 10 10 10 10 10 10 10 10 10 10 10 10 10 10 10 10 10 10 10 10 10 10 10 10 10 10 10 10 10 10 10 10 10 10 10 10 10 10 10 10 10 10 10 10 10 10 10 10 10 10 10 10 10 10 10 10 10 10 10 10 10 10 10 10 10 10 10 10 10 10 10 10 10 10 10 10 10 10 10 10 10 10 10 10 10 10 10 10 10 10 10 10 10 10 10 10 10 10 10 10 10 10 10 10 10 10 10 10 10 10 10 10 10 10 10 10 10 10 10 10 10 10 10 10 10 10 10 10 10 10 10 10 10 10 10 10 10 10 10 10 10 10 10 </DataArray>
</Cells>
<PointData  Vectors="f_37-0"> 
<DataArray  type="Float64"  Name="f_37-0"  NumberOfComponents="3" format="ascii">3.7465239788933270e-02 -2.0063546329691415e-02 0.0000000000000000e+00  -8.2969174498937360e-04 8.1348959540604199e-04 -5.3485327004612782e-02  6.5628558056953543e-02 -1.8233307890626584e-02 0.0000000000000000e+00  -2.3444731489494856e-04 -2.3855559853845260e-04 -7.6355839280516841e-02  4.4108977229547396e-02 1.3789263562475984e-02 0.0000000000000000e+00  1.9874176000925382e-02 3.7792172951839439e-02 0.0000000000000000e+00  -1.3980678315825312e-02 4.3163750202008876e-02 0.0000000000000000e+00  -3.6487863246779453e-02 2.1364407457137805e-02 0.0000000000000000e+00  -4.4154743613748687e-02 -1.4072011851687561e-02 0.0000000000000000e+00  -2.0817908987861435e-02 -3.5051882055514565e-02 0.0000000000000000e+00  1.3271243861840035e-02 -4.3096070818104099e-02 0.0000000000000000e+00  6.0677274297989137e-02 3.5011509930046779e-02 0.0000000000000000e+00  1.8543429683120914e-02 6.5693629093130063e-02 0.0000000000000000e+00  -3.5195501910929565e-02 6.1911051381372650e-02 0.0000000000000000e+00  -6.5438539869895715e-02 1.7825886777444046e-02 0.0000000000000000e+00  -6.1707019486546603e-02 -3.7014753825908214e-02 0.0000000000000000e+00  -1.7601231964385747e-02 -6.5527575714681083e-02 0.0000000000000000e+00  3.5249890103323946e-02 -6.1564526677528264e-02 0.0000000000000000e+00  3.3587877085583737e-02 6.1308904823084032e-03 -3.6686268099503816e-02  1.1999209776015133e-02 2.3333822802071965e-02 -5.8891651378411271e-02  6.5203065606798061e-02 3.5312933917420446e-03 -3.4817585188127158e-02  4.2947388830481562e-02 2.0840126613536521e-02 -6.6249066827634873e-02  2.0625022486809554e-02 2.8024766838098774e-02 -3.3114498591341662e-02  -9.0279709487479046e-03 2.3574284949411949e-02 -5.5090476831002967e-02  -7.8087943294572193e-03 3.4623687559831667e-02 -3.5553331028071157e-02  -2.6774018066784113e-02 1.1340591922037801e-02 -5.7575510316061403e-02  -3.0329371238311243e-02 1.8418774866793622e-02 -3.1706744276228056e-02  -2.5667570381497449e-02 -9.2733262176385271e-03 -5.9140041815387442e-02  -3.4620503658157824e-02 -8.6931331897203163e-03 -3.4599701542120768e-02  -1.1020046125573963e-02 -2.2595742201315737e-02 -5.8574916354385442e-02  -1.6808842516578597e-02 -3.0373466745511668e-02 -3.1776494192304265e-02  1.0798397310791170e-02 -2.4302283774381112e-02 -5.4773492948638682e-02  7.5129840067613392e-03 -3.6177045370222961e-02 -3.5517022323734694e-02  2.6599477101135686e-02 -1.1162447231026580e-02 -5.7755029782301931e-02  2.8494298400021701e-02 -2.0576745091777468e-02 -3.3511816308493439e-02  2.5702312280838878e-02 8.0534702537886638e-03 -5.8045601535794029e-02  4.5661515487762996e-02 4.9632468446703659e-02 -3.5794162593630413e-02  1.6107400916336403e-02 4.4430340431821612e-02 -6.7295059282118305e-02  -3.2956590908353326e-03 6.6192817793029851e-02 -3.5103505868552820e-02  -1.9974690495596283e-02 4.3710420617555146e-02 -6.6637234254579944e-02  -4.8141211073104283e-02 4.3949354957861904e-02 -3.4933856023359744e-02  -4.4101479017569098e-02 1.5219013086031833e-02 -6.6126311830787987e-02  -6.6400331208993191e-02 -3.0968943004633298e-03 -3.5328235261325919e-02  -4.2914199956371087e-02 -2.0806182310471440e-02 -6.6634534622130800e-02  -4.4736713436638542e-02 -4.8896594080797905e-02 -3.5590409403965892e-02  -1.5713968218616776e-02 -4.3473591000555235e-02 -6.7503302687321159e-02  3.0751484619781738e-03 -6.7527081522615232e-02 -3.5525859418363871e-02  2.0082938656072309e-02 -4.4374265024578453e-02 -6.7619874833336036e-02  4.9078446177605532e-02 -4.5011975595830013e-02 -3.5654939859466203e-02  4.3593787356753302e-02 -1.5579084493312334e-02 -6.7565728155997443e-02  -5.9721689299863837e-02 -4.7472967897375104e-03 0.0000000000000000e+00  -4.4000584575697659e-02 3.7654379086757540e-02 0.0000000000000000e+00  -4.9559847790732001e-03 5.7800368680016437e-02 0.0000000000000000e+00  3.8533317571240504e-02 4.5161271682749179e-02 0.0000000000000000e+00  5.8886600021505711e-02 4.6348617721898742e-03 0.0000000000000000e+00  4.4759254814394786e-02 -3.8239425909846199e-02 0.0000000000000000e+00  4.8020175241736086e-03 -5.7272751904599115e-02 0.0000000000000000e+00  -3.7972730737419788e-02 -4.3943095306514066e-02 0.0000000000000000e+00  </DataArray> 
</PointData> 
</Piece>
</UnstructuredGrid>
</VTKFile>