<?xml version="1.0"?>
<VTKFile type="UnstructuredGrid"  version="0.1"  >
<UnstructuredGrid>
<Piece  NumberOfPoints="58" NumberOfCells="148">
<Points>
<DataArray  type="Float64"  NumberOfComponents="3"  format="ascii">0.4023249999999999 0 0  0 0 -0.8046499999999999  0.266805 0 0  0 0 -0.6691299999999999  0.2844867357408777 0.2844867357408777 0  2.775557561562891e-17 0.4023249999999999 0  -0.2844867357408777 0.2844867357408777 0  -0.4023249999999999 2.775557561562891e-17 0  -0.2844867357408777 -0.2844867357408777 0  -2.775557561562891e-17 -0.4023249999999999 0  0.2844867357408777 -0.2844867357408777 0  0.1886596247544768 0.1886596247544768 0  2.775557561562891e-17 0.266805 0  -0.1886596247544767 0.1886596247544768 0  -0.266805 8.326672684688674e-17 0  -0.1886596247544768 -0.1886596247544767 0  -1.387778780781446e-16 -0.266805 0  0.1886596247544766 -0.1886596247544769 0  0.3686082568662342 0 -0.3224491190562394  0.2536108874396318 0 -0.6246500569025265  0.2466044134321161 0 -0.2554056152626437  0.1766587270840894 0 -0.5014405794480644  0.2606453980314651 0.2606453980314651 -0.3224491190562516  0.1793299782912967 0.1793299782912967 -0.6246500569025382  2.542952674080888e-17 0.3686082568662342 -0.3224491190562394  1.749609435972772e-17 0.2536108874396318 -0.6246500569025265  -0.2606453980314651 0.2606453980314651 -0.3224491190562516  -0.1793299782912967 0.1793299782912967 -0.6246500569025382  -0.3686082568662342 2.542952674080888e-17 -0.3224491190562394  -0.2536108874396318 1.749609435972772e-17 -0.6246500569025265  -0.2606453980314651 -0.2606453980314651 -0.3224491190562516  -0.1793299782912967 -0.1793299782912967 -0.6246500569025382  -2.542952674080888e-17 -0.3686082568662342 -0.3224491190562394  -1.749609435972772e-17 -0.2536108874396318 -0.6246500569025265  0.2606453980314651 -0.2606453980314651 -0.3224491190562516  0.1793299782912967 -0.1793299782912967 -0.6246500569025382  0.1743756530083801 0.17437565300838 -0.2554056152626451  0.1249165838769436 0.1249165838769436 -0.5014405794480633  2.565411984094344e-17 0.2466044134321161 -0.2554056152626437  1.837770902997769e-17 0.1766587270840894 -0.5014405794480644  -0.1743756530083802 0.1743756530083803 -0.2554056152626436  -0.1249165838769431 0.1249165838769432 -0.5014405794480646  -0.2466044134321161 7.696235952283031e-17 -0.2554056152626437  -0.1766587270840894 5.513312708993305e-17 -0.5014405794480644  -0.1743756530083802 -0.17437565300838 -0.2554056152626445  -0.1249165838769429 -0.1249165838769428 -0.5014405794480657  -1.282705992047172e-16 -0.2466044134321161 -0.2554056152626437  -9.188854514988842e-17 -0.1766587270840894 -0.5014405794480644  0.1743756530083804 -0.1743756530083806 -0.2554056152626407  0.1249165838769432 -0.1249165838769434 -0.5014405794480641  -0.2855690901238386 -0.1182865901238386 0  -0.2855690901238385 0.1182865901238386 0  -0.1182865901238386 0.2855690901238386 -0  0.1182865901238386 0.2855690901238386 0  0.2855690901238386 0.1182865901238386 0  0.2855690901238386 -0.1182865901238386 0  0.1182865901238385 -0.2855690901238386 0  -0.1182865901238387 -0.2855690901238386 0  </DataArray>
</Points>
<Cells>
<DataArray  type="UInt32"  Name="connectivity"  format="ascii">5 6 24 52  8 9 32 57  7 8 28 50  9 10 32 56  0 4 18 54  6 7 28 51  0 10 18 55  4 5 24 53  10 18 34 55  4 18 22 54  4 22 24 53  8 28 30 50  30 42 44 50  22 23 37 39  21 22 23 37  30 31 43 45  30 31 45 47  20 34 48 55  22 36 38 53  20 22 36 54  28 40 42 51  21 34 35 49  33 34 47 49  16 17 46 56  15 16 46 57  25 26 39 41  22 24 38 53  18 20 34 55  18 20 22 54  28 30 42 50  29 30 31 43  22 23 25 39  19 21 22 23  30 31 33 47  28 29 41 43  15 42 44 50  9 32 46 57  0 18 20 55  5 24 38 52  7 28 42 51  5 24 38 53  0 18 20 54  9 32 46 56  7 28 42 50  33 34 35 49  9 16 46 57  9 16 46 56  12 36 38 53  2 11 20 54  11 12 36 53  14 15 42 50  14 40 42 51  13 14 40 51  12 13 38 52  2 17 48 55  11 20 36 54  2 20 48 55  25 26 27 41  8 30 44 50  10 34 48 55  4 22 36 54  4 22 36 53  27 28 29 41  18 21 34 35  26 27 28 41  18 19 21 35  28 29 30 43  24 25 26 39  22 24 25 39  30 32 33 47  18 19 21 22  32 33 34 47  0 2 20 54  0 2 20 55  7 14 42 50  7 14 42 51  5 12 38 52  5 12 38 53  30 43 44 45  30 44 45 47  22 36 37 39  21 22 36 37  34 47 48 49  21 34 48 49  1 3 31 33  1 3 23 25  1 3 19 23  1 3 29 31  8 15 44 50  30 42 43 44  26 39 40 41  22 36 38 39  20 21 22 36  20 21 34 48  4 11 36 54  4 11 36 53  6 13 40 51  10 17 48 55  3 31 43 45  3 23 37 39  3 31 45 47  3 21 23 37  28 41 42 43  32 44 46 47  1 3 27 29  1 3 33 35  1 3 19 35  1 3 25 27  32 46 47 48  28 40 41 42  24 38 39 40  30 32 44 47  3 33 47 49  3 21 35 49  26 28 40 41  28 30 42 43  24 26 39 40  22 24 38 39  32 34 47 48  18 20 21 22  18 20 21 34  3 29 41 43  3 25 39 41  3 29 31 43  3 23 25 39  3 31 33 47  3 19 21 23  3 33 35 49  3 27 29 41  3 25 27 41  3 19 21 35  6 24 26 40  10 32 34 48  8 30 32 44  6 26 28 40  6 28 40 51  8 15 44 46  8 15 46 57  8 32 44 46  8 32 46 57  10 17 46 56  10 17 46 48  10 32 46 56  10 32 46 48  6 13 38 52  6 13 38 40  6 24 38 52  6 24 38 40  </DataArray>
<DataArray  type="UInt32"  Name="offsets"  format="ascii">4 8 12 16 20 24 28 32 36 40 44 48 52 56 60 64 68 72 76 80 84 88 92 96 100 104 108 112 116 120 124 128 132 136 140 144 148 152 156 160 164 168 172 176 180 184 188 192 196 200 204 208 212 216 220 224 228 232 236 240 244 248 252 256 260 264 268 272 276 280 284 288 292 296 300 304 308 312 316 320 324 328 332 336 340 344 348 352 356 360 364 368 372 376 380 384 388 392 396 400 404 408 412 416 420 424 428 432 436 440 444 448 452 456 460 464 468 472 476 480 484 488 492 496 500 504 508 512 516 520 524 528 532 536 540 544 548 552 556 560 564 568 572 576 580 584 588 592 </DataArray>
<DataArray  type="UInt8"  Name="types"  format="ascii">10 10 10 10 10 10 10 10 10 10 10 10 10 10 10 10 10 10 10 10 10 10 10 10 10 10 10 10 10 10 10 10 10 10 10 10 10 10 10 10 10 10 10 10 10 10 10 10 10 10 10 10 10 10 10 10 10 10 10 10 10 10 10 10 10 10 10 10 10 10 10 10 10 10 10 10 10 10 10 10 10 10 10 10 10 10 10 10 10 10 10 10 10 10 10 10 10 10 10 10 10 10 10 10 10 10 10 10 10 10 10 10 10 10 10 10 10 10 10 10 10 10 10 10 10 10 10 10 10 10 10 10 10 10 10 10 10 10 10 10 10 10 10 10 10 10 10 10 </DataArray>
</Cells>
<PointData  Vectors="f_37-0"> 
<DataArray  type="Float64"  Name="f_37-0"  NumberOfComponents="3" format="ascii">4.1802698281102647e-02 -2.2885399656108012e-02 0.0000000000000000e+00  -1.3505616677495782e-03 1.2307866771213976e-03 -6.0483193540046193e-02  7.5461634647149223e-02 -2.1281121450190000e-02 0.0000000000000000e+00  -4.7687250037193701e-04 -4.2706091865180463e-04 -9.4943338316974851e-02  4.9415320402563891e-02 1.4249630601593054e-02 0.0000000000000000e+00  2.2439565058894818e-02 4.1841735043125772e-02 0.0000000000000000e+00  -1.5432279758775981e-02 4.8310613508823083e-02 0.0000000000000000e+00  -3.9932635392974120e-02 2.4657139478813126e-02 0.0000000000000000e+00  -4.9953475796462012e-02 -1.4445519849336952e-02 0.0000000000000000e+00  -2.3792168628294464e-02 -3.8194869244911188e-02 0.0000000000000000e+00  1.4694039115269017e-02 -4.8429444060403962e-02 0.0000000000000000e+00  6.9593438231732543e-02 3.9774577268488882e-02 0.0000000000000000e+00  2.1515307799030742e-02 7.5415309206633196e-02 0.0000000000000000e+00  -4.0151710705492352e-02 7.1050790897679753e-02 0.0000000000000000e+00  -7.5085641288558741e-02 2.0605304220060794e-02 0.0000000000000000e+00  -7.0918313709738209e-02 -4.2146788107871994e-02 0.0000000000000000e+00  -2.0373562678235289e-02 -7.5168080996969075e-02 0.0000000000000000e+00  4.0330470576215943e-02 -7.0789576161492077e-02 0.0000000000000000e+00  3.8148856050781436e-02 7.0526162971791999e-03 -4.4547778678124948e-02  1.4489430125842822e-02 2.5795951665956589e-02 -7.1198156782505934e-02  7.5095646964328841e-02 4.2352368068862738e-03 -4.2333622289971062e-02  4.9972240494694911e-02 2.4629885742546643e-02 -8.0966132915507291e-02  2.3502603352783348e-02 3.1535700493648747e-02 -3.9235528566216343e-02  -1.0245776402670223e-02 2.5653683299101133e-02 -6.4141449505064452e-02  -9.5835592060808314e-03 3.9634274659345270e-02 -4.2976261994798481e-02  -3.0777341623501424e-02 1.3508956986242968e-02 -6.8598865373411685e-02  -3.5010846061288702e-02 2.1590433196867022e-02 -3.7552074254612093e-02  -2.9448270347086965e-02 -1.0190034066543452e-02 -7.1812925511016173e-02  -3.9136039165059887e-02 -1.0817853003370844e-02 -4.1492269452869594e-02  -1.2651198268785661e-02 -2.5294596116123762e-02 -7.0297303785150492e-02  -1.8187405807750384e-02 -3.5119884190137493e-02 -3.7691139649694907e-02  1.2999644068218850e-02 -2.6984495778608925e-02 -6.3885317482950718e-02  8.8756890062181813e-03 -4.2129363834385779e-02 -4.2891904709251284e-02  3.0078152804959204e-02 -1.2813972222194331e-02 -6.8224711681051334e-02  3.2211396598914144e-02 -2.4152849698464395e-02 -3.9888533045742545e-02  2.9651492046020123e-02 8.4147811346232445e-03 -6.9245031046856045e-02  5.2571517593234918e-02 5.7403388923704203e-02 -4.3344007442622158e-02  1.8163309324280306e-02 5.1724351801348281e-02 -8.2159633235755605e-02  -4.0815360767875522e-03 7.6194480094889508e-02 -4.2640122870444733e-02  -2.3836596313347405e-02 5.0927125766652086e-02 -8.1337587191244148e-02  -5.5678478146084710e-02 5.0649260501624382e-02 -4.2469625450479463e-02  -5.1569845298353276e-02 1.7530041370376257e-02 -8.0716741496597674e-02  -7.6420813898172596e-02 -3.7826452899890422e-03 -4.2759684302017251e-02  -4.9787090910368738e-02 -2.4408411707225425e-02 -8.1381689505255164e-02  -5.1238873285943752e-02 -5.6591260697451823e-02 -4.3055340617450373e-02  -1.7745049314704730e-02 -5.0612471078308983e-02 -8.2157576743691535e-02  3.8489353985628684e-03 -7.7789543679144271e-02 -4.2998355120573421e-02  2.3879805983237655e-02 -5.1825465604579894e-02 -8.2596121936312522e-02  5.6727089463410929e-02 -5.1946831659322998e-02 -4.3161906435387039e-02  5.0774761869943487e-02 -1.7821626255940994e-02 -8.2304691250212322e-02  -6.8660290050873624e-02 -5.1284376700577354e-03 0.0000000000000000e+00  -5.0299244405236795e-02 4.3431345899417058e-02 0.0000000000000000e+00  -5.3345373639385810e-03 6.6054070163477335e-02 0.0000000000000000e+00  4.4540858486791415e-02 5.1441586993736493e-02 0.0000000000000000e+00  6.7740817590226376e-02 4.9320118476404249e-03 0.0000000000000000e+00  5.1145491282366853e-02 -4.4279784346610916e-02 0.0000000000000000e+00  5.2261644310464218e-03 -6.5654044038325254e-02 0.0000000000000000e+00  -4.3751092580554471e-02 -4.9968830342664174e-02 0.0000000000000000e+00  </DataArray> 
</PointData> 
</Piece>
</UnstructuredGrid>
</VTKFile>