<?xml version="1.0"?>
<VTKFile type="UnstructuredGrid"  version="0.1"  >
<UnstructuredGrid>
<Piece  NumberOfPoints="58" NumberOfCells="148">
<Points>
<DataArray  type="Float64"  NumberOfComponents="3"  format="ascii">0.4023249999999999 0 0  0 0 -0.8046499999999999  0.266805 0 0  0 0 -0.6691299999999999  0.2844867357408777 0.2844867357408777 0  2.775557561562891e-17 0.4023249999999999 0  -0.2844867357408777 0.2844867357408777 0  -0.4023249999999999 2.775557561562891e-17 0  -0.2844867357408777 -0.2844867357408777 0  -2.775557561562891e-17 -0.4023249999999999 0  0.2844867357408777 -0.2844867357408777 0  0.1886596247544768 0.1886596247544768 0  2.775557561562891e-17 0.266805 0  -0.1886596247544767 0.1886596247544768 0  -0.266805 8.326672684688674e-17 0  -0.1886596247544768 -0.1886596247544767 0  -1.387778780781446e-16 -0.266805 0  0.1886596247544766 -0.1886596247544769 0  0.3686082568662342 0 -0.3224491190562394  0.2536108874396318 0 -0.6246500569025265  0.2466044134321161 0 -0.2554056152626437  0.1766587270840894 0 -0.5014405794480644  0.2606453980314651 0.2606453980314651 -0.3224491190562516  0.1793299782912967 0.1793299782912967 -0.6246500569025382  2.542952674080888e-17 0.3686082568662342 -0.3224491190562394  1.749609435972772e-17 0.2536108874396318 -0.6246500569025265  -0.2606453980314651 0.2606453980314651 -0.3224491190562516  -0.1793299782912967 0.1793299782912967 -0.6246500569025382  -0.3686082568662342 2.542952674080888e-17 -0.3224491190562394  -0.2536108874396318 1.749609435972772e-17 -0.6246500569025265  -0.2606453980314651 -0.2606453980314651 -0.3224491190562516  -0.1793299782912967 -0.1793299782912967 -0.6246500569025382  -2.542952674080888e-17 -0.3686082568662342 -0.3224491190562394  -1.749609435972772e-17 -0.2536108874396318 -0.6246500569025265  0.2606453980314651 -0.2606453980314651 -0.3224491190562516  0.1793299782912967 -0.1793299782912967 -0.6246500569025382  0.1743756530083801 0.17437565300838 -0.2554056152626451  0.1249165838769436 0.1249165838769436 -0.5014405794480633  2.565411984094344e-17 0.2466044134321161 -0.2554056152626437  1.837770902997769e-17 0.1766587270840894 -0.5014405794480644  -0.1743756530083802 0.1743756530083803 -0.2554056152626436  -0.1249165838769431 0.1249165838769432 -0.5014405794480646  -0.2466044134321161 7.696235952283031e-17 -0.2554056152626437  -0.1766587270840894 5.513312708993305e-17 -0.5014405794480644  -0.1743756530083802 -0.17437565300838 -0.2554056152626445  -0.1249165838769429 -0.1249165838769428 -0.5014405794480657  -1.282705992047172e-16 -0.2466044134321161 -0.2554056152626437  -9.188854514988842e-17 -0.1766587270840894 -0.5014405794480644  0.1743756530083804 -0.1743756530083806 -0.2554056152626407  0.1249165838769432 -0.1249165838769434 -0.5014405794480641  -0.2855690901238386 -0.1182865901238386 0  -0.2855690901238385 0.1182865901238386 0  -0.1182865901238386 0.2855690901238386 -0  0.1182865901238386 0.2855690901238386 0  0.2855690901238386 0.1182865901238386 0  0.2855690901238386 -0.1182865901238386 0  0.1182865901238385 -0.2855690901238386 0  -0.1182865901238387 -0.2855690901238386 0  </DataArray>
</Points>
<Cells>
<DataArray  type="UInt32"  Name="connectivity"  format="ascii">5 6 24 52  8 9 32 57  7 8 28 50  9 10 32 56  0 4 18 54  6 7 28 51  0 10 18 55  4 5 24 53  10 18 34 55  4 18 22 54  4 22 24 53  8 28 30 50  30 42 44 50  22 23 37 39  21 22 23 37  30 31 43 45  30 31 45 47  20 34 48 55  22 36 38 53  20 22 36 54  28 40 42 51  21 34 35 49  33 34 47 49  16 17 46 56  15 16 46 57  25 26 39 41  22 24 38 53  18 20 34 55  18 20 22 54  28 30 42 50  29 30 31 43  22 23 25 39  19 21 22 23  30 31 33 47  28 29 41 43  15 42 44 50  9 32 46 57  0 18 20 55  5 24 38 52  7 28 42 51  5 24 38 53  0 18 20 54  9 32 46 56  7 28 42 50  33 34 35 49  9 16 46 57  9 16 46 56  12 36 38 53  2 11 20 54  11 12 36 53  14 15 42 50  14 40 42 51  13 14 40 51  12 13 38 52  2 17 48 55  11 20 36 54  2 20 48 55  25 26 27 41  8 30 44 50  10 34 48 55  4 22 36 54  4 22 36 53  27 28 29 41  18 21 34 35  26 27 28 41  18 19 21 35  28 29 30 43  24 25 26 39  22 24 25 39  30 32 33 47  18 19 21 22  32 33 34 47  0 2 20 54  0 2 20 55  7 14 42 50  7 14 42 51  5 12 38 52  5 12 38 53  30 43 44 45  30 44 45 47  22 36 37 39  21 22 36 37  34 47 48 49  21 34 48 49  1 3 31 33  1 3 23 25  1 3 19 23  1 3 29 31  8 15 44 50  30 42 43 44  26 39 40 41  22 36 38 39  20 21 22 36  20 21 34 48  4 11 36 54  4 11 36 53  6 13 40 51  10 17 48 55  3 31 43 45  3 23 37 39  3 31 45 47  3 21 23 37  28 41 42 43  32 44 46 47  1 3 27 29  1 3 33 35  1 3 19 35  1 3 25 27  32 46 47 48  28 40 41 42  24 38 39 40  30 32 44 47  3 33 47 49  3 21 35 49  26 28 40 41  28 30 42 43  24 26 39 40  22 24 38 39  32 34 47 48  18 20 21 22  18 20 21 34  3 29 41 43  3 25 39 41  3 29 31 43  3 23 25 39  3 31 33 47  3 19 21 23  3 33 35 49  3 27 29 41  3 25 27 41  3 19 21 35  6 24 26 40  10 32 34 48  8 30 32 44  6 26 28 40  6 28 40 51  8 15 44 46  8 15 46 57  8 32 44 46  8 32 46 57  10 17 46 56  10 17 46 48  10 32 46 56  10 32 46 48  6 13 38 52  6 13 38 40  6 24 38 52  6 24 38 40  </DataArray>
<DataArray  type="UInt32"  Name="offsets"  format="ascii">4 8 12 16 20 24 28 32 36 40 44 48 52 56 60 64 68 72 76 80 84 88 92 96 100 104 108 112 116 120 124 128 132 136 140 144 148 152 156 160 164 168 172 176 180 184 188 192 196 200 204 208 212 216 220 224 228 232 236 240 244 248 252 256 260 264 268 272 276 280 284 288 292 296 300 304 308 312 316 320 324 328 332 336 340 344 348 352 356 360 364 368 372 376 380 384 388 392 396 400 404 408 412 416 420 424 428 432 436 440 444 448 452 456 460 464 468 472 476 480 484 488 492 496 500 504 508 512 516 520 524 528 532 536 540 544 548 552 556 560 564 568 572 576 580 584 588 592 </DataArray>
<DataArray  type="UInt8"  Name="types"  format="ascii">10 10 10 10 10 10 10 10 10 10 10 10 10 10 10 10 10 10 10 10 10 10 10 10 10 10 10 10 10 10 10 10 10 10 10 10 10 10 10 10 10 10 10 10 10 10 10 10 10 10 10 10 10 10 10 10 10 10 10 10 10 10 10 10 10 10 10 10 10 10 10 10 10 10 10 10 10 10 10 10 10 10 10 10 10 10 10 10 10 10 10 10 10 10 10 10 10 10 10 10 10 10 10 10 10 10 10 10 10 10 10 10 10 10 10 10 10 10 10 10 10 10 10 10 10 10 10 10 10 10 10 10 10 10 10 10 10 10 10 10 10 10 10 10 10 10 10 10 </DataArray>
</Cells>
<PointData  Vectors="f_37-0"> 
<DataArray  type="Float64"  Name="f_37-0"  NumberOfComponents="3" format="ascii">3.1618007782278523e-02 -1.6747740403231855e-02 0.0000000000000000e+00  -4.9381399612439430e-04 3.9225888362378253e-04 -4.1632580149639893e-02  5.4080271019369006e-02 -1.4866172976317697e-02 0.0000000000000000e+00  -5.8257688637080913e-05 -1.0531715907535137e-04 -5.5173694760960304e-02  3.7209009053591174e-02 1.2236467034715728e-02 0.0000000000000000e+00  1.6760217076330217e-02 3.2056150736891720e-02 0.0000000000000000e+00  -1.1940171966927161e-02 3.6593799793745045e-02 0.0000000000000000e+00  -3.1181543517250835e-02 1.7608793916769488e-02 0.0000000000000000e+00  -3.7042036881206192e-02 -1.2562628845557850e-02 0.0000000000000000e+00  -1.7397448853679748e-02 -3.0078750893698877e-02 0.0000000000000000e+00  1.1233575705407511e-02 -3.6367907573632403e-02 0.0000000000000000e+00  5.0242021872578202e-02 2.9235809509398483e-02 0.0000000000000000e+00  1.5184047881168179e-02 5.4223230819839104e-02 0.0000000000000000e+00  -2.9230388929478702e-02 5.1253681195196826e-02 0.0000000000000000e+00  -5.4051088315798808e-02 1.4676553878360830e-02 0.0000000000000000e+00  -5.0928302403849518e-02 -3.0846825816208439e-02 0.0000000000000000e+00  -1.4433535601912880e-02 -5.4178442996242498e-02 0.0000000000000000e+00  2.9195118736916457e-02 -5.0873517072274853e-02 0.0000000000000000e+00  2.7953479426177992e-02 4.8439540334950949e-03 -2.7885685398723804e-02  9.2078702434629373e-03 1.9232991145320382e-02 -4.4399209798442751e-02  5.3581548486804222e-02 2.6026613341934568e-03 -2.6315784998446660e-02  3.4545364792801382e-02 1.6269351608046313e-02 -4.9381949099847500e-02  1.7302141553129664e-02 2.3366162988680279e-02 -2.5756939807527232e-02  -7.3465126201305202e-03 1.9714167676852218e-02 -4.3010861356773206e-02  -5.8150221519656055e-03 2.8625229836269504e-02 -2.7115359007060583e-02  -2.1478343096169267e-02 8.6065227201848372e-03 -4.3922653529515132e-02  -2.4647681656413518e-02 1.5191152633785968e-02 -2.4612437919802395e-02  -2.0439859969898531e-02 -7.7868075209774883e-03 -4.4360318625028469e-02  -2.8955097316032047e-02 -6.4168485426151839e-03 -2.6593924211452940e-02  -8.7020667033446981e-03 -1.8542871503063538e-02 -4.4477563052365020e-02  -1.4730919732975932e-02 -2.4667601050653996e-02 -2.4702783921990618e-02  8.3231318939165650e-03 -2.0074500858856377e-02 -4.2752075050890466e-02  5.7181762376524213e-03 -2.9475874867534703e-02 -2.7093407779323894e-02  2.1614308823139382e-02 -8.7027646565590467e-03 -4.4357018270008861e-02  2.3541780909005369e-02 -1.6830398905330505e-02 -2.5957285406156931e-02  2.0447936283931600e-02 6.9706348426921503e-03 -4.4315439145848685e-02  3.7629391993829454e-02 4.0464288735948109e-02 -2.7168306865788493e-02  1.3578014485480161e-02 3.5587322404325446e-02 -5.0274418190360763e-02  -2.3484570130683962e-03 5.4384007847584515e-02 -2.6568648041332611e-02  -1.5413274191529188e-02 3.5115231629545766e-02 -4.9787939846758535e-02  -3.9203156842745307e-02 3.6175057759723177e-02 -2.6419138209185480e-02  -3.5143783315388512e-02 1.2502230450864387e-02 -4.9388184841131090e-02  -5.4590617154660868e-02 -2.2085781542700552e-03 -2.6868783453634148e-02  -3.4676663893255813e-02 -1.6355838899711549e-02 -4.9728311658067986e-02  -3.7105880207464047e-02 -3.9854283074128645e-02 -2.7065324847429618e-02  -1.3242723491895137e-02 -3.4887340525295303e-02 -5.0658816100386653e-02  2.0935538855371945e-03 -5.5459858928678003e-02 -2.7035472374334398e-02  1.5567763623002615e-02 -3.5571938210167207e-02 -5.0494141531430288e-02  4.0005546167023703e-02 -3.6977335692438114e-02 -2.7097979403275921e-02  3.4922226210290140e-02 -1.2962045897318388e-02 -5.0654811127601153e-02  -4.9300069513252276e-02 -4.1389520993122386e-03 0.0000000000000000e+00  -3.6586762515303080e-02 3.0989550657436627e-02 0.0000000000000000e+00  -4.3296255246417252e-03 4.8044062432924479e-02 0.0000000000000000e+00  3.1624634886617202e-02 3.7605464982528272e-02 0.0000000000000000e+00  4.8596743652510870e-02 4.1238256680389508e-03 0.0000000000000000e+00  3.7177612360128343e-02 -3.1340699683848720e-02 0.0000000000000000e+00  4.1563117112420932e-03 -4.7455262349472942e-02 0.0000000000000000e+00  -3.1310063143392144e-02 -3.6680351673745039e-02 0.0000000000000000e+00  </DataArray> 
</PointData> 
</Piece>
</UnstructuredGrid>
</VTKFile>