<?xml version="1.0"?>
<VTKFile type="UnstructuredGrid"  version="0.1"  >
<UnstructuredGrid>
<Piece  NumberOfPoints="58" NumberOfCells="148">
<Points>
<DataArray  type="Float64"  NumberOfComponents="3"  format="ascii">0.4023249999999999 0 0  0 0 -0.8046499999999999  0.266805 0 0  0 0 -0.6691299999999999  0.2844867357408777 0.2844867357408777 0  2.775557561562891e-17 0.4023249999999999 0  -0.2844867357408777 0.2844867357408777 0  -0.4023249999999999 2.775557561562891e-17 0  -0.2844867357408777 -0.2844867357408777 0  -2.775557561562891e-17 -0.4023249999999999 0  0.2844867357408777 -0.2844867357408777 0  0.1886596247544768 0.1886596247544768 0  2.775557561562891e-17 0.266805 0  -0.1886596247544767 0.1886596247544768 0  -0.266805 8.326672684688674e-17 0  -0.1886596247544768 -0.1886596247544767 0  -1.387778780781446e-16 -0.266805 0  0.1886596247544766 -0.1886596247544769 0  0.3686082568662342 0 -0.3224491190562394  0.2536108874396318 0 -0.6246500569025265  0.2466044134321161 0 -0.2554056152626437  0.1766587270840894 0 -0.5014405794480644  0.2606453980314651 0.2606453980314651 -0.3224491190562516  0.1793299782912967 0.1793299782912967 -0.6246500569025382  2.542952674080888e-17 0.3686082568662342 -0.3224491190562394  1.749609435972772e-17 0.2536108874396318 -0.6246500569025265  -0.2606453980314651 0.2606453980314651 -0.3224491190562516  -0.1793299782912967 0.1793299782912967 -0.6246500569025382  -0.3686082568662342 2.542952674080888e-17 -0.3224491190562394  -0.2536108874396318 1.749609435972772e-17 -0.6246500569025265  -0.2606453980314651 -0.2606453980314651 -0.3224491190562516  -0.1793299782912967 -0.1793299782912967 -0.6246500569025382  -2.542952674080888e-17 -0.3686082568662342 -0.3224491190562394  -1.749609435972772e-17 -0.2536108874396318 -0.6246500569025265  0.2606453980314651 -0.2606453980314651 -0.3224491190562516  0.1793299782912967 -0.1793299782912967 -0.6246500569025382  0.1743756530083801 0.17437565300838 -0.2554056152626451  0.1249165838769436 0.1249165838769436 -0.5014405794480633  2.565411984094344e-17 0.2466044134321161 -0.2554056152626437  1.837770902997769e-17 0.1766587270840894 -0.5014405794480644  -0.1743756530083802 0.1743756530083803 -0.2554056152626436  -0.1249165838769431 0.1249165838769432 -0.5014405794480646  -0.2466044134321161 7.696235952283031e-17 -0.2554056152626437  -0.1766587270840894 5.513312708993305e-17 -0.5014405794480644  -0.1743756530083802 -0.17437565300838 -0.2554056152626445  -0.1249165838769429 -0.1249165838769428 -0.5014405794480657  -1.282705992047172e-16 -0.2466044134321161 -0.2554056152626437  -9.188854514988842e-17 -0.1766587270840894 -0.5014405794480644  0.1743756530083804 -0.1743756530083806 -0.2554056152626407  0.1249165838769432 -0.1249165838769434 -0.5014405794480641  -0.2855690901238386 -0.1182865901238386 0  -0.2855690901238385 0.1182865901238386 0  -0.1182865901238386 0.2855690901238386 -0  0.1182865901238386 0.2855690901238386 0  0.2855690901238386 0.1182865901238386 0  0.2855690901238386 -0.1182865901238386 0  0.1182865901238385 -0.2855690901238386 0  -0.1182865901238387 -0.2855690901238386 0  </DataArray>
</Points>
<Cells>
<DataArray  type="UInt32"  Name="connectivity"  format="ascii">5 6 24 52  8 9 32 57  7 8 28 50  9 10 32 56  0 4 18 54  6 7 28 51  0 10 18 55  4 5 24 53  10 18 34 55  4 18 22 54  4 22 24 53  8 28 30 50  30 42 44 50  22 23 37 39  21 22 23 37  30 31 43 45  30 31 45 47  20 34 48 55  22 36 38 53  20 22 36 54  28 40 42 51  21 34 35 49  33 34 47 49  16 17 46 56  15 16 46 57  25 26 39 41  22 24 38 53  18 20 34 55  18 20 22 54  28 30 42 50  29 30 31 43  22 23 25 39  19 21 22 23  30 31 33 47  28 29 41 43  15 42 44 50  9 32 46 57  0 18 20 55  5 24 38 52  7 28 42 51  5 24 38 53  0 18 20 54  9 32 46 56  7 28 42 50  33 34 35 49  9 16 46 57  9 16 46 56  12 36 38 53  2 11 20 54  11 12 36 53  14 15 42 50  14 40 42 51  13 14 40 51  12 13 38 52  2 17 48 55  11 20 36 54  2 20 48 55  25 26 27 41  8 30 44 50  10 34 48 55  4 22 36 54  4 22 36 53  27 28 29 41  18 21 34 35  26 27 28 41  18 19 21 35  28 29 30 43  24 25 26 39  22 24 25 39  30 32 33 47  18 19 21 22  32 33 34 47  0 2 20 54  0 2 20 55  7 14 42 50  7 14 42 51  5 12 38 52  5 12 38 53  30 43 44 45  30 44 45 47  22 36 37 39  21 22 36 37  34 47 48 49  21 34 48 49  1 3 31 33  1 3 23 25  1 3 19 23  1 3 29 31  8 15 44 50  30 42 43 44  26 39 40 41  22 36 38 39  20 21 22 36  20 21 34 48  4 11 36 54  4 11 36 53  6 13 40 51  10 17 48 55  3 31 43 45  3 23 37 39  3 31 45 47  3 21 23 37  28 41 42 43  32 44 46 47  1 3 27 29  1 3 33 35  1 3 19 35  1 3 25 27  32 46 47 48  28 40 41 42  24 38 39 40  30 32 44 47  3 33 47 49  3 21 35 49  26 28 40 41  28 30 42 43  24 26 39 40  22 24 38 39  32 34 47 48  18 20 21 22  18 20 21 34  3 29 41 43  3 25 39 41  3 29 31 43  3 23 25 39  3 31 33 47  3 19 21 23  3 33 35 49  3 27 29 41  3 25 27 41  3 19 21 35  6 24 26 40  10 32 34 48  8 30 32 44  6 26 28 40  6 28 40 51  8 15 44 46  8 15 46 57  8 32 44 46  8 32 46 57  10 17 46 56  10 17 46 48  10 32 46 56  10 32 46 48  6 13 38 52  6 13 38 40  6 24 38 52  6 24 38 40  </DataArray>
<DataArray  type="UInt32"  Name="offsets"  format="ascii">4 8 12 16 20 24 28 32 36 40 44 48 52 56 60 64 68 72 76 80 84 88 92 96 100 104 108 112 116 120 124 128 132 136 140 144 148 152 156 160 164 168 172 176 180 184 188 192 196 200 204 208 212 216 220 224 228 232 236 240 244 248 252 256 260 264 268 272 276 280 284 288 292 296 300 304 308 312 316 320 324 328 332 336 340 344 348 352 356 360 364 368 372 376 380 384 388 392 396 400 404 408 412 416 420 424 428 432 436 440 444 448 452 456 460 464 468 472 476 480 484 488 492 496 500 504 508 512 516 520 524 528 532 536 540 544 548 552 556 560 564 568 572 576 580 584 588 592 </DataArray>
<DataArray  type="UInt8"  Name="types"  format="ascii">10 10 10 10 10 10 10 10 10 10 10 10 10 10 10 10 10 10 10 10 10 10 10 10 10 10 10 10 10 10 10 10 10 10 10 10 10 10 10 10 10 10 10 10 10 10 10 10 10 10 10 10 10 10 10 10 10 10 10 10 10 10 10 10 10 10 10 10 10 10 10 10 10 10 10 10 10 10 10 10 10 10 10 10 10 10 10 10 10 10 10 10 10 10 10 10 10 10 10 10 10 10 10 10 10 10 10 10 10 10 10 10 10 10 10 10 10 10 10 10 10 10 10 10 10 10 10 10 10 10 10 10 10 10 10 10 10 10 10 10 10 10 10 10 10 10 10 10 </DataArray>
</Cells>
<PointData  Vectors="f_37-0"> 
<DataArray  type="Float64"  Name="f_37-0"  NumberOfComponents="3" format="ascii">3.8337053733982700e-03 -1.8876012256805645e-03 0.0000000000000000e+00  -2.4572534292471195e-05 2.5304885239138846e-05 -1.5301406776261179e-03  6.1365003375269782e-03 -1.6473041117936826e-03 0.0000000000000000e+00  1.2340878097492131e-05 1.3504420691341367e-05 -1.9241838464003063e-03  4.5768478279554683e-03 1.7738141372790079e-03 0.0000000000000000e+00  1.9953511859252971e-03 3.9192236316213276e-03 0.0000000000000000e+00  -1.6596739140781877e-03 4.5093555035384363e-03 0.0000000000000000e+00  -3.8524379219226318e-03 1.9480812625405947e-03 0.0000000000000000e+00  -4.5760449996404169e-03 -1.8053537076639463e-03 0.0000000000000000e+00  -2.0108711629258486e-03 -3.6870501321917791e-03 0.0000000000000000e+00  1.5426599496946700e-03 -4.4551078575616083e-03 0.0000000000000000e+00  5.9143776125094982e-03 3.6047946419522372e-03 0.0000000000000000e+00  1.7235018535868619e-03 6.2431074086317720e-03 0.0000000000000000e+00  -3.4129487567255033e-03 6.0561557084834244e-03 0.0000000000000000e+00  -6.2023588007302805e-03 1.6509445328300400e-03 0.0000000000000000e+00  -5.8637154091741982e-03 -3.8278081721105891e-03 0.0000000000000000e+00  -1.5303639463863574e-03 -6.2454259790791552e-03 0.0000000000000000e+00  3.4115766034459685e-03 -5.9592140546600595e-03 0.0000000000000000e+00  3.1337262683498821e-03 4.6692835024348306e-04 -1.7981086471433839e-03  6.5193188274151629e-04 1.7996715295307759e-03 -2.2764593680519741e-03  5.8635890946355353e-03 2.3895877159187251e-04 -1.4556621226661675e-03  3.1479615787975393e-03 1.3563773154358222e-03 -2.2628394049588629e-03  2.0709324181114527e-03 2.6338982582512624e-03 -1.7664365910288657e-03  -7.7551406518976173e-04 1.7783410619022235e-03 -2.3273236525546506e-03  -4.7224868979899915e-04 3.2104505451499054e-03 -1.7557856274798829e-03  -1.9658963400384388e-03 5.5163782334946066e-04 -2.2795695804821809e-03  -2.5637805673163912e-03 1.7807030488037293e-03 -1.6110121241638626e-03  -1.7082013090355113e-03 -8.3088254508148236e-04 -2.2264419187917328e-03  -3.3158455846492617e-03 -5.2077183367595483e-04 -1.7377956478724639e-03  -6.0514048734817624e-04 -1.7295835189019748e-03 -2.3018449232801545e-03  -1.8522401238606006e-03 -2.6512338129493257e-03 -1.6957103402442755e-03  8.0466109264976549e-04 -1.7659008575514751e-03 -2.3279572794418428e-03  4.4622667629575446e-04 -3.2317490568418024e-03 -1.7323571266230128e-03  2.0095253525796012e-03 -5.9308218347798930e-04 -2.3769325115496911e-03  2.5322437104692919e-03 -1.9179763220032030e-03 -1.7406687383820767e-03  1.7284544540932130e-03 7.8695446992489953e-04 -2.3191705569576846e-03  4.1972038315543428e-03 4.4213880516808558e-03 -1.5488069845842043e-03  1.4500212609348429e-03 3.2310111277327543e-03 -2.4118100441043368e-03  -1.8468845414800367e-04 5.9679208701513640e-03 -1.4801355613968498e-03  -1.1982226364783749e-03 3.2215442788559780e-03 -2.3228693974597634e-03  -4.1424844384896397e-03 3.9677897548454407e-03 -1.4302544381633640e-03  -3.1196616273926818e-03 1.1881363814967901e-03 -2.3012149177464147e-03  -6.0058629640313676e-03 -1.5428603566651635e-04 -1.5588382994637566e-03  -3.2236892508081135e-03 -1.3591002631089244e-03 -2.3189919856818082e-03  -4.2155508345075214e-03 -4.3275263029575088e-03 -1.5501874132601340e-03  -1.4070201530708437e-03 -3.1862577472719315e-03 -2.5077089426644135e-03  7.1609525221805241e-05 -6.1108551710144492e-03 -1.5713435533659685e-03  1.2518615535517348e-03 -3.2694515554754617e-03 -2.4076737498994892e-03  4.2724804973346391e-03 -4.0364119217653916e-03 -1.5466271029833196e-03  3.1447616023458471e-03 -1.3394602246832347e-03 -2.4850083521179476e-03  -5.7296505929581463e-03 -6.8228684753020882e-04 0.0000000000000000e+00  -4.4108291431539087e-03 3.4727338627075395e-03 0.0000000000000000e+00  -6.7141879291295460e-04 5.7301812519798727e-03 0.0000000000000000e+00  3.5583458070500575e-03 4.5459729638259658e-03 0.0000000000000000e+00  5.6422250844217819e-03 7.2294238505706215e-04 0.0000000000000000e+00  4.4344118577412783e-03 -3.4740107581309205e-03 0.0000000000000000e+00  6.4829478510405392e-04 -5.5882235322466545e-03 0.0000000000000000e+00  -3.5511044379006500e-03 -4.4298541193671060e-03 0.0000000000000000e+00  </DataArray> 
</PointData> 
</Piece>
</UnstructuredGrid>
</VTKFile>