<?xml version="1.0"?>
<VTKFile type="UnstructuredGrid"  version="0.1"  >
<UnstructuredGrid>
<Piece  NumberOfPoints="58" NumberOfCells="148">
<Points>
<DataArray  type="Float64"  NumberOfComponents="3"  format="ascii">0.4023249999999999 0 0  0 0 -0.8046499999999999  0.266805 0 0  0 0 -0.6691299999999999  0.2844867357408777 0.2844867357408777 0  2.775557561562891e-17 0.4023249999999999 0  -0.2844867357408777 0.2844867357408777 0  -0.4023249999999999 2.775557561562891e-17 0  -0.2844867357408777 -0.2844867357408777 0  -2.775557561562891e-17 -0.4023249999999999 0  0.2844867357408777 -0.2844867357408777 0  0.1886596247544768 0.1886596247544768 0  2.775557561562891e-17 0.266805 0  -0.1886596247544767 0.1886596247544768 0  -0.266805 8.326672684688674e-17 0  -0.1886596247544768 -0.1886596247544767 0  -1.387778780781446e-16 -0.266805 0  0.1886596247544766 -0.1886596247544769 0  0.3686082568662342 0 -0.3224491190562394  0.2536108874396318 0 -0.6246500569025265  0.2466044134321161 0 -0.2554056152626437  0.1766587270840894 0 -0.5014405794480644  0.2606453980314651 0.2606453980314651 -0.3224491190562516  0.1793299782912967 0.1793299782912967 -0.6246500569025382  2.542952674080888e-17 0.3686082568662342 -0.3224491190562394  1.749609435972772e-17 0.2536108874396318 -0.6246500569025265  -0.2606453980314651 0.2606453980314651 -0.3224491190562516  -0.1793299782912967 0.1793299782912967 -0.6246500569025382  -0.3686082568662342 2.542952674080888e-17 -0.3224491190562394  -0.2536108874396318 1.749609435972772e-17 -0.6246500569025265  -0.2606453980314651 -0.2606453980314651 -0.3224491190562516  -0.1793299782912967 -0.1793299782912967 -0.6246500569025382  -2.542952674080888e-17 -0.3686082568662342 -0.3224491190562394  -1.749609435972772e-17 -0.2536108874396318 -0.6246500569025265  0.2606453980314651 -0.2606453980314651 -0.3224491190562516  0.1793299782912967 -0.1793299782912967 -0.6246500569025382  0.1743756530083801 0.17437565300838 -0.2554056152626451  0.1249165838769436 0.1249165838769436 -0.5014405794480633  2.565411984094344e-17 0.2466044134321161 -0.2554056152626437  1.837770902997769e-17 0.1766587270840894 -0.5014405794480644  -0.1743756530083802 0.1743756530083803 -0.2554056152626436  -0.1249165838769431 0.1249165838769432 -0.5014405794480646  -0.2466044134321161 7.696235952283031e-17 -0.2554056152626437  -0.1766587270840894 5.513312708993305e-17 -0.5014405794480644  -0.1743756530083802 -0.17437565300838 -0.2554056152626445  -0.1249165838769429 -0.1249165838769428 -0.5014405794480657  -1.282705992047172e-16 -0.2466044134321161 -0.2554056152626437  -9.188854514988842e-17 -0.1766587270840894 -0.5014405794480644  0.1743756530083804 -0.1743756530083806 -0.2554056152626407  0.1249165838769432 -0.1249165838769434 -0.5014405794480641  -0.2855690901238386 -0.1182865901238386 0  -0.2855690901238385 0.1182865901238386 0  -0.1182865901238386 0.2855690901238386 -0  0.1182865901238386 0.2855690901238386 0  0.2855690901238386 0.1182865901238386 0  0.2855690901238386 -0.1182865901238386 0  0.1182865901238385 -0.2855690901238386 0  -0.1182865901238387 -0.2855690901238386 0  </DataArray>
</Points>
<Cells>
<DataArray  type="UInt32"  Name="connectivity"  format="ascii">5 6 24 52  8 9 32 57  7 8 28 50  9 10 32 56  0 4 18 54  6 7 28 51  0 10 18 55  4 5 24 53  10 18 34 55  4 18 22 54  4 22 24 53  8 28 30 50  30 42 44 50  22 23 37 39  21 22 23 37  30 31 43 45  30 31 45 47  20 34 48 55  22 36 38 53  20 22 36 54  28 40 42 51  21 34 35 49  33 34 47 49  16 17 46 56  15 16 46 57  25 26 39 41  22 24 38 53  18 20 34 55  18 20 22 54  28 30 42 50  29 30 31 43  22 23 25 39  19 21 22 23  30 31 33 47  28 29 41 43  15 42 44 50  9 32 46 57  0 18 20 55  5 24 38 52  7 28 42 51  5 24 38 53  0 18 20 54  9 32 46 56  7 28 42 50  33 34 35 49  9 16 46 57  9 16 46 56  12 36 38 53  2 11 20 54  11 12 36 53  14 15 42 50  14 40 42 51  13 14 40 51  12 13 38 52  2 17 48 55  11 20 36 54  2 20 48 55  25 26 27 41  8 30 44 50  10 34 48 55  4 22 36 54  4 22 36 53  27 28 29 41  18 21 34 35  26 27 28 41  18 19 21 35  28 29 30 43  24 25 26 39  22 24 25 39  30 32 33 47  18 19 21 22  32 33 34 47  0 2 20 54  0 2 20 55  7 14 42 50  7 14 42 51  5 12 38 52  5 12 38 53  30 43 44 45  30 44 45 47  22 36 37 39  21 22 36 37  34 47 48 49  21 34 48 49  1 3 31 33  1 3 23 25  1 3 19 23  1 3 29 31  8 15 44 50  30 42 43 44  26 39 40 41  22 36 38 39  20 21 22 36  20 21 34 48  4 11 36 54  4 11 36 53  6 13 40 51  10 17 48 55  3 31 43 45  3 23 37 39  3 31 45 47  3 21 23 37  28 41 42 43  32 44 46 47  1 3 27 29  1 3 33 35  1 3 19 35  1 3 25 27  32 46 47 48  28 40 41 42  24 38 39 40  30 32 44 47  3 33 47 49  3 21 35 49  26 28 40 41  28 30 42 43  24 26 39 40  22 24 38 39  32 34 47 48  18 20 21 22  18 20 21 34  3 29 41 43  3 25 39 41  3 29 31 43  3 23 25 39  3 31 33 47  3 19 21 23  3 33 35 49  3 27 29 41  3 25 27 41  3 19 21 35  6 24 26 40  10 32 34 48  8 30 32 44  6 26 28 40  6 28 40 51  8 15 44 46  8 15 46 57  8 32 44 46  8 32 46 57  10 17 46 56  10 17 46 48  10 32 46 56  10 32 46 48  6 13 38 52  6 13 38 40  6 24 38 52  6 24 38 40  </DataArray>
<DataArray  type="UInt32"  Name="offsets"  format="ascii">4 8 12 16 20 24 28 32 36 40 44 48 52 56 60 64 68 72 76 80 84 88 92 96 100 104 108 112 116 120 124 128 132 136 140 144 148 152 156 160 164 168 172 176 180 184 188 192 196 200 204 208 212 216 220 224 228 232 236 240 244 248 252 256 260 264 268 272 276 280 284 288 292 296 300 304 308 312 316 320 324 328 332 336 340 344 348 352 356 360 364 368 372 376 380 384 388 392 396 400 404 408 412 416 420 424 428 432 436 440 444 448 452 456 460 464 468 472 476 480 484 488 492 496 500 504 508 512 516 520 524 528 532 536 540 544 548 552 556 560 564 568 572 576 580 584 588 592 </DataArray>
<DataArray  type="UInt8"  Name="types"  format="ascii">10 10 10 10 10 10 10 10 10 10 10 10 10 10 10 10 10 10 10 10 10 10 10 10 10 10 10 10 10 10 10 10 10 10 10 10 10 10 10 10 10 10 10 10 10 10 10 10 10 10 10 10 10 10 10 10 10 10 10 10 10 10 10 10 10 10 10 10 10 10 10 10 10 10 10 10 10 10 10 10 10 10 10 10 10 10 10 10 10 10 10 10 10 10 10 10 10 10 10 10 10 10 10 10 10 10 10 10 10 10 10 10 10 10 10 10 10 10 10 10 10 10 10 10 10 10 10 10 10 10 10 10 10 10 10 10 10 10 10 10 10 10 10 10 10 10 10 10 </DataArray>
</Cells>
<PointData  Vectors="f_37-0"> 
<DataArray  type="Float64"  Name="f_37-0"  NumberOfComponents="3" format="ascii">1.7263360496624823e-02 -8.8289912387354789e-03 0.0000000000000000e+00  -1.5752840524275601e-04 1.0551957427459610e-04 -1.4259335086411669e-02  2.8375301947148154e-02 -7.6310661461414147e-03 0.0000000000000000e+00  4.2017584076930966e-05 4.1050060378158231e-05 -1.7471793155662232e-02  2.0334821464717746e-02 7.3004607805424232e-03 0.0000000000000000e+00  9.0524321190126288e-03 1.7566070471151881e-02 0.0000000000000000e+00  -6.9416120709021208e-03 2.0172035817089758e-02 0.0000000000000000e+00  -1.7212426062405198e-02 9.1491948120838475e-03 0.0000000000000000e+00  -2.0257629457508256e-02 -7.4584352677306400e-03 0.0000000000000000e+00  -9.2464401132067234e-03 -1.6603018261032887e-02 0.0000000000000000e+00  6.4470630564959159e-03 -1.9914082130548003e-02 0.0000000000000000e+00  2.6769957598937945e-02 1.5964206438266883e-02 0.0000000000000000e+00  7.8467677889108561e-03 2.8598102257307155e-02 0.0000000000000000e+00  -1.5680389400128867e-02 2.7370679360316379e-02 0.0000000000000000e+00  -2.8518248703199797e-02 7.6517482494974885e-03 0.0000000000000000e+00  -2.6836304827320013e-02 -1.6825555043592472e-02 0.0000000000000000e+00  -7.3316432122896265e-03 -2.8674854537046039e-02 0.0000000000000000e+00  1.5614545132443303e-02 -2.7042330067277551e-02 0.0000000000000000e+00  1.4720736572020483e-02 2.3260499865336995e-03 -1.1374621420177653e-02  3.7161610931245952e-03 9.2089143053779975e-03 -1.6641342725559463e-02  2.7686039159795381e-02 1.1187495956968042e-03 -1.0267412907617991e-02  1.6147800040168494e-02 7.2252264406324459e-03 -1.7713426152585834e-02  9.3469115043860202e-03 1.2276693145075387e-02 -1.0863035541353962e-02  -3.7912898294113085e-03 9.2763126585620279e-03 -1.6712772368346937e-02  -2.5057676557880206e-03 1.4969431926579237e-02 -1.1089814871165648e-02  -1.0049522107197522e-02 3.2623747489398279e-03 -1.6634954413798225e-02  -1.2381442711473489e-02 8.1540768382699098e-03 -1.0264300943045056e-02  -9.1128741859171046e-03 -4.0375735963487343e-03 -1.6460807981108987e-02  -1.5391231036727760e-02 -2.7531713890439884e-03 -1.0994268962065320e-02  -3.5088418738552264e-03 -8.8776786407026662e-03 -1.6777010877776569e-02  -8.3334550557347849e-03 -1.2503319077086445e-02 -1.0433011161598149e-02  3.9861083219910540e-03 -9.2905963009239072e-03 -1.6683846127054782e-02  2.4553863296018774e-03 -1.5143234214154424e-02 -1.1033741200489687e-02  1.0234537757797616e-02 -3.4193327788393977e-03 -1.7027525831194528e-02  1.2083771126624020e-02 -8.8207009321716687e-03 -1.0869476620663570e-02  9.1500334737549868e-03 3.7790139077536031e-03 -1.6837406853345636e-02  1.9554873364733508e-02 2.0692301666821789e-02 -1.0700318348306627e-02  6.9321482302786876e-03 1.6559645113773790e-02 -1.8263074987262332e-02  -9.6402960018368209e-04 2.8065238712400069e-02 -1.0400649327703579e-02  -6.6622409757781309e-03 1.6438981281572097e-02 -1.7995109442014285e-02  -1.9837059441485897e-02 1.8700618327450732e-02 -1.0295744733095066e-02  -1.6187013776094748e-02 6.0139260458476652e-03 -1.7834031039231698e-02  -2.8228763820011743e-02 -8.2116546169046603e-04 -1.0683021761780912e-02  -1.6383411804729377e-02 -7.2463697266315717e-03 -1.7933698195425975e-02  -1.9523972277489657e-02 -2.0349896027452751e-02 -1.0718180361307561e-02  -6.7531013182771001e-03 -1.6320029498082908e-02 -1.8652284997892343e-02  6.3994983615414647e-04 -2.8662658719475591e-02 -1.0776502171242403e-02  6.8169620061465496e-03 -1.6641352864281440e-02 -1.8335810946060994e-02  2.0323901737201760e-02 -1.9022686871332281e-02 -1.0728159606302669e-02  1.6263902924536940e-02 -6.5038493122986539e-03 -1.8622075261162475e-02  -2.6112406661645497e-02 -2.6017780830348801e-03 0.0000000000000000e+00  -1.9821554626136197e-02 1.6174527359928321e-02 0.0000000000000000e+00  -2.7013048307191942e-03 2.5846863245073140e-02 0.0000000000000000e+00  1.6429839055992452e-02 2.0341223829865075e-02 0.0000000000000000e+00  2.5753282965315767e-02 2.7232571329658742e-03 0.0000000000000000e+00  2.0029261800863396e-02 -1.6220600014238071e-02 0.0000000000000000e+00  2.5839686370136847e-03 -2.5335320603448775e-02 0.0000000000000000e+00  -1.6399310537760392e-02 -1.9894002307736913e-02 0.0000000000000000e+00  </DataArray> 
</PointData> 
</Piece>
</UnstructuredGrid>
</VTKFile>