<?xml version="1.0"?>
<VTKFile type="UnstructuredGrid"  version="0.1"  >
<UnstructuredGrid>
<Piece  NumberOfPoints="58" NumberOfCells="148">
<Points>
<DataArray  type="Float64"  NumberOfComponents="3"  format="ascii">0.4023249999999999 0 0  0 0 -0.8046499999999999  0.266805 0 0  0 0 -0.6691299999999999  0.2844867357408777 0.2844867357408777 0  2.775557561562891e-17 0.4023249999999999 0  -0.2844867357408777 0.2844867357408777 0  -0.4023249999999999 2.775557561562891e-17 0  -0.2844867357408777 -0.2844867357408777 0  -2.775557561562891e-17 -0.4023249999999999 0  0.2844867357408777 -0.2844867357408777 0  0.1886596247544768 0.1886596247544768 0  2.775557561562891e-17 0.266805 0  -0.1886596247544767 0.1886596247544768 0  -0.266805 8.326672684688674e-17 0  -0.1886596247544768 -0.1886596247544767 0  -1.387778780781446e-16 -0.266805 0  0.1886596247544766 -0.1886596247544769 0  0.3686082568662342 0 -0.3224491190562394  0.2536108874396318 0 -0.6246500569025265  0.2466044134321161 0 -0.2554056152626437  0.1766587270840894 0 -0.5014405794480644  0.2606453980314651 0.2606453980314651 -0.3224491190562516  0.1793299782912967 0.1793299782912967 -0.6246500569025382  2.542952674080888e-17 0.3686082568662342 -0.3224491190562394  1.749609435972772e-17 0.2536108874396318 -0.6246500569025265  -0.2606453980314651 0.2606453980314651 -0.3224491190562516  -0.1793299782912967 0.1793299782912967 -0.6246500569025382  -0.3686082568662342 2.542952674080888e-17 -0.3224491190562394  -0.2536108874396318 1.749609435972772e-17 -0.6246500569025265  -0.2606453980314651 -0.2606453980314651 -0.3224491190562516  -0.1793299782912967 -0.1793299782912967 -0.6246500569025382  -2.542952674080888e-17 -0.3686082568662342 -0.3224491190562394  -1.749609435972772e-17 -0.2536108874396318 -0.6246500569025265  0.2606453980314651 -0.2606453980314651 -0.3224491190562516  0.1793299782912967 -0.1793299782912967 -0.6246500569025382  0.1743756530083801 0.17437565300838 -0.2554056152626451  0.1249165838769436 0.1249165838769436 -0.5014405794480633  2.565411984094344e-17 0.2466044134321161 -0.2554056152626437  1.837770902997769e-17 0.1766587270840894 -0.5014405794480644  -0.1743756530083802 0.1743756530083803 -0.2554056152626436  -0.1249165838769431 0.1249165838769432 -0.5014405794480646  -0.2466044134321161 7.696235952283031e-17 -0.2554056152626437  -0.1766587270840894 5.513312708993305e-17 -0.5014405794480644  -0.1743756530083802 -0.17437565300838 -0.2554056152626445  -0.1249165838769429 -0.1249165838769428 -0.5014405794480657  -1.282705992047172e-16 -0.2466044134321161 -0.2554056152626437  -9.188854514988842e-17 -0.1766587270840894 -0.5014405794480644  0.1743756530083804 -0.1743756530083806 -0.2554056152626407  0.1249165838769432 -0.1249165838769434 -0.5014405794480641  -0.2855690901238386 -0.1182865901238386 0  -0.2855690901238385 0.1182865901238386 0  -0.1182865901238386 0.2855690901238386 -0  0.1182865901238386 0.2855690901238386 0  0.2855690901238386 0.1182865901238386 0  0.2855690901238386 -0.1182865901238386 0  0.1182865901238385 -0.2855690901238386 0  -0.1182865901238387 -0.2855690901238386 0  </DataArray>
</Points>
<Cells>
<DataArray  type="UInt32"  Name="connectivity"  format="ascii">5 6 24 52  8 9 32 57  7 8 28 50  9 10 32 56  0 4 18 54  6 7 28 51  0 10 18 55  4 5 24 53  10 18 34 55  4 18 22 54  4 22 24 53  8 28 30 50  30 42 44 50  22 23 37 39  21 22 23 37  30 31 43 45  30 31 45 47  20 34 48 55  22 36 38 53  20 22 36 54  28 40 42 51  21 34 35 49  33 34 47 49  16 17 46 56  15 16 46 57  25 26 39 41  22 24 38 53  18 20 34 55  18 20 22 54  28 30 42 50  29 30 31 43  22 23 25 39  19 21 22 23  30 31 33 47  28 29 41 43  15 42 44 50  9 32 46 57  0 18 20 55  5 24 38 52  7 28 42 51  5 24 38 53  0 18 20 54  9 32 46 56  7 28 42 50  33 34 35 49  9 16 46 57  9 16 46 56  12 36 38 53  2 11 20 54  11 12 36 53  14 15 42 50  14 40 42 51  13 14 40 51  12 13 38 52  2 17 48 55  11 20 36 54  2 20 48 55  25 26 27 41  8 30 44 50  10 34 48 55  4 22 36 54  4 22 36 53  27 28 29 41  18 21 34 35  26 27 28 41  18 19 21 35  28 29 30 43  24 25 26 39  22 24 25 39  30 32 33 47  18 19 21 22  32 33 34 47  0 2 20 54  0 2 20 55  7 14 42 50  7 14 42 51  5 12 38 52  5 12 38 53  30 43 44 45  30 44 45 47  22 36 37 39  21 22 36 37  34 47 48 49  21 34 48 49  1 3 31 33  1 3 23 25  1 3 19 23  1 3 29 31  8 15 44 50  30 42 43 44  26 39 40 41  22 36 38 39  20 21 22 36  20 21 34 48  4 11 36 54  4 11 36 53  6 13 40 51  10 17 48 55  3 31 43 45  3 23 37 39  3 31 45 47  3 21 23 37  28 41 42 43  32 44 46 47  1 3 27 29  1 3 33 35  1 3 19 35  1 3 25 27  32 46 47 48  28 40 41 42  24 38 39 40  30 32 44 47  3 33 47 49  3 21 35 49  26 28 40 41  28 30 42 43  24 26 39 40  22 24 38 39  32 34 47 48  18 20 21 22  18 20 21 34  3 29 41 43  3 25 39 41  3 29 31 43  3 23 25 39  3 31 33 47  3 19 21 23  3 33 35 49  3 27 29 41  3 25 27 41  3 19 21 35  6 24 26 40  10 32 34 48  8 30 32 44  6 26 28 40  6 28 40 51  8 15 44 46  8 15 46 57  8 32 44 46  8 32 46 57  10 17 46 56  10 17 46 48  10 32 46 56  10 32 46 48  6 13 38 52  6 13 38 40  6 24 38 52  6 24 38 40  </DataArray>
<DataArray  type="UInt32"  Name="offsets"  format="ascii">4 8 12 16 20 24 28 32 36 40 44 48 52 56 60 64 68 72 76 80 84 88 92 96 100 104 108 112 116 120 124 128 132 136 140 144 148 152 156 160 164 168 172 176 180 184 188 192 196 200 204 208 212 216 220 224 228 232 236 240 244 248 252 256 260 264 268 272 276 280 284 288 292 296 300 304 308 312 316 320 324 328 332 336 340 344 348 352 356 360 364 368 372 376 380 384 388 392 396 400 404 408 412 416 420 424 428 432 436 440 444 448 452 456 460 464 468 472 476 480 484 488 492 496 500 504 508 512 516 520 524 528 532 536 540 544 548 552 556 560 564 568 572 576 580 584 588 592 </DataArray>
<DataArray  type="UInt8"  Name="types"  format="ascii">10 10 10 10 10 10 10 10 10 10 10 10 10 10 10 10 10 10 10 10 10 10 10 10 10 10 10 10 10 10 10 10 10 10 10 10 10 10 10 10 10 10 10 10 10 10 10 10 10 10 10 10 10 10 10 10 10 10 10 10 10 10 10 10 10 10 10 10 10 10 10 10 10 10 10 10 10 10 10 10 10 10 10 10 10 10 10 10 10 10 10 10 10 10 10 10 10 10 10 10 10 10 10 10 10 10 10 10 10 10 10 10 10 10 10 10 10 10 10 10 10 10 10 10 10 10 10 10 10 10 10 10 10 10 10 10 10 10 10 10 10 10 10 10 10 10 10 10 </DataArray>
</Cells>
<PointData  Vectors="f_37-0"> 
<DataArray  type="Float64"  Name="f_37-0"  NumberOfComponents="3" format="ascii">4.5687973629793023e-02 -2.6829917403395756e-02 0.0000000000000000e+00  -2.4755522171465752e-03 9.4615309485539386e-04 -6.7067281019996663e-02  8.7292182638534013e-02 -2.5680051766992257e-02 0.0000000000000000e+00  -8.8837800257497170e-04 -8.3849067371770240e-04 -1.1736567807395053e-01  5.5063682409408253e-02 1.2692806550796895e-02 0.0000000000000000e+00  2.5948590256139995e-02 4.4961024080610180e-02 0.0000000000000000e+00  -1.6251274965512107e-02 5.4149878314777938e-02 0.0000000000000000e+00  -4.1852020164716806e-02 2.9142724964542989e-02 0.0000000000000000e+00  -5.6831198813863538e-02 -1.3197971358326992e-02 0.0000000000000000e+00  -2.8125390663541344e-02 -4.0017948908842686e-02 0.0000000000000000e+00  1.5258896706244911e-02 -5.4569231549206551e-02 0.0000000000000000e+00  8.0724744653428049e-02 4.4957363915657543e-02 0.0000000000000000e+00  2.5683331641708558e-02 8.6995569822622215e-02 0.0000000000000000e+00  -4.5601216090267051e-02 8.2435181388969894e-02 0.0000000000000000e+00  -8.6639671592972187e-02 2.4507205660461537e-02 0.0000000000000000e+00  -8.2423902833062820e-02 -4.7926262075910261e-02 0.0000000000000000e+00  -2.4306821192165644e-02 -8.6812461818697437e-02 0.0000000000000000e+00  4.5985482216945303e-02 -8.2437831360900299e-02 0.0000000000000000e+00  4.3323567225090460e-02 7.2390308562297343e-03 -5.4302588411275776e-02  1.8358074342615917e-02 2.6743279077094676e-02 -8.5540328904957455e-02  8.7039300103658443e-02 4.3439354333166614e-03 -5.1495724758841031e-02  5.8223059903297195e-02 2.8471068014780075e-02 -9.8644138222274524e-02  2.7531990984463229e-02 3.4658969768793922e-02 -4.6149935087763438e-02  -1.0591854394832154e-02 2.6642737037768868e-02 -7.3423110098824934e-02  -1.1163465510890543e-02 4.5558416713103574e-02 -5.1933019686717041e-02  -3.4236550880346162e-02 1.6152318503288132e-02 -8.0358632561198046e-02  -3.9872989096299688e-02 2.6583281877764636e-02 -4.4110791014218984e-02  -3.2321464631298438e-02 -1.0321683325621295e-02 -8.6164788861607930e-02  -4.4215378180056636e-02 -1.2942984232818059e-02 -4.9697709282170391e-02  -1.4744615501815489e-02 -2.6982987267671298e-02 -8.3697745201975260e-02  -1.9775100817933336e-02 -4.0102145429291983e-02 -4.4383898727039364e-02  1.4731170099180972e-02 -2.9326590128752720e-02 -7.3393111999309049e-02  9.5264826375230805e-03 -4.9823267067032606e-02 -5.1850240361505491e-02  3.2528339219790606e-02 -1.4566072035715085e-02 -7.8898920347560089e-02  3.5355279327936931e-02 -2.9582695113507085e-02 -4.7267715380225672e-02  3.3279719186118363e-02 7.2103428170611997e-03 -8.1688224657707170e-02  6.1397661036021026e-02 6.6228888100014552e-02 -5.2450505237705183e-02  2.0998450595305525e-02 5.9823276334247208e-02 -1.0008756512020719e-01  -4.3893333182943054e-03 8.8150540197690322e-02 -5.1815928073220344e-02  -2.7823355292986483e-02 5.9375778641915483e-02 -9.9026016310546749e-02  -6.4220024973656281e-02 5.9165845759696932e-02 -5.1670372986557356e-02  -5.9929827967335016e-02 2.0619138522278653e-02 -9.8241229967658619e-02  -8.8510447176265869e-02 -3.9746149865328498e-03 -5.1774983675058735e-02  -5.7924084638978156e-02 -2.8046907356167609e-02 -9.9110805081228506e-02  -5.9520743006398535e-02 -6.5469589331280942e-02 -5.2068095531002286e-02  -2.0598534352676105e-02 -5.8742595527149305e-02 -9.9773546044758618e-02  4.0852029487024695e-03 -9.0195405645925542e-02 -5.2088138352734840e-02  2.7778939314155524e-02 -6.0680609692354705e-02 -1.0060913849369539e-01  6.5392180481413834e-02 -6.0838407126944237e-02 -5.2246954190334496e-02  5.8773402436294038e-02 -2.0995152984472978e-02 -1.0001341220788519e-01  -7.9659831443707044e-02 -4.9697009100913864e-03 0.0000000000000000e+00  -5.7758642960056818e-02 5.0951582435038445e-02 0.0000000000000000e+00  -5.1270605804156861e-03 7.6045778771698797e-02 0.0000000000000000e+00  5.2344581582614097e-02 5.8552889143011509e-02 0.0000000000000000e+00  7.8740094774663441e-02 4.6242459377853319e-03 0.0000000000000000e+00  5.8561072603308777e-02 -5.2232392994479043e-02 0.0000000000000000e+00  5.1074406144788614e-03 -7.6026512802333981e-02 0.0000000000000000e+00  -5.1356861605021578e-02 -5.6917070701462853e-02 0.0000000000000000e+00  </DataArray> 
</PointData> 
</Piece>
</UnstructuredGrid>
</VTKFile>