<?xml version="1.0"?>
<VTKFile type="UnstructuredGrid"  version="0.1"  >
<UnstructuredGrid>
<Piece  NumberOfPoints="58" NumberOfCells="148">
<Points>
<DataArray  type="Float64"  NumberOfComponents="3"  format="ascii">0.4023249999999999 0 0  0 0 -0.8046499999999999  0.266805 0 0  0 0 -0.6691299999999999  0.2844867357408777 0.2844867357408777 0  2.775557561562891e-17 0.4023249999999999 0  -0.2844867357408777 0.2844867357408777 0  -0.4023249999999999 2.775557561562891e-17 0  -0.2844867357408777 -0.2844867357408777 0  -2.775557561562891e-17 -0.4023249999999999 0  0.2844867357408777 -0.2844867357408777 0  0.1886596247544768 0.1886596247544768 0  2.775557561562891e-17 0.266805 0  -0.1886596247544767 0.1886596247544768 0  -0.266805 8.326672684688674e-17 0  -0.1886596247544768 -0.1886596247544767 0  -1.387778780781446e-16 -0.266805 0  0.1886596247544766 -0.1886596247544769 0  0.3686082568662342 0 -0.3224491190562394  0.2536108874396318 0 -0.6246500569025265  0.2466044134321161 0 -0.2554056152626437  0.1766587270840894 0 -0.5014405794480644  0.2606453980314651 0.2606453980314651 -0.3224491190562516  0.1793299782912967 0.1793299782912967 -0.6246500569025382  2.542952674080888e-17 0.3686082568662342 -0.3224491190562394  1.749609435972772e-17 0.2536108874396318 -0.6246500569025265  -0.2606453980314651 0.2606453980314651 -0.3224491190562516  -0.1793299782912967 0.1793299782912967 -0.6246500569025382  -0.3686082568662342 2.542952674080888e-17 -0.3224491190562394  -0.2536108874396318 1.749609435972772e-17 -0.6246500569025265  -0.2606453980314651 -0.2606453980314651 -0.3224491190562516  -0.1793299782912967 -0.1793299782912967 -0.6246500569025382  -2.542952674080888e-17 -0.3686082568662342 -0.3224491190562394  -1.749609435972772e-17 -0.2536108874396318 -0.6246500569025265  0.2606453980314651 -0.2606453980314651 -0.3224491190562516  0.1793299782912967 -0.1793299782912967 -0.6246500569025382  0.1743756530083801 0.17437565300838 -0.2554056152626451  0.1249165838769436 0.1249165838769436 -0.5014405794480633  2.565411984094344e-17 0.2466044134321161 -0.2554056152626437  1.837770902997769e-17 0.1766587270840894 -0.5014405794480644  -0.1743756530083802 0.1743756530083803 -0.2554056152626436  -0.1249165838769431 0.1249165838769432 -0.5014405794480646  -0.2466044134321161 7.696235952283031e-17 -0.2554056152626437  -0.1766587270840894 5.513312708993305e-17 -0.5014405794480644  -0.1743756530083802 -0.17437565300838 -0.2554056152626445  -0.1249165838769429 -0.1249165838769428 -0.5014405794480657  -1.282705992047172e-16 -0.2466044134321161 -0.2554056152626437  -9.188854514988842e-17 -0.1766587270840894 -0.5014405794480644  0.1743756530083804 -0.1743756530083806 -0.2554056152626407  0.1249165838769432 -0.1249165838769434 -0.5014405794480641  -0.2855690901238386 -0.1182865901238386 0  -0.2855690901238385 0.1182865901238386 0  -0.1182865901238386 0.2855690901238386 -0  0.1182865901238386 0.2855690901238386 0  0.2855690901238386 0.1182865901238386 0  0.2855690901238386 -0.1182865901238386 0  0.1182865901238385 -0.2855690901238386 0  -0.1182865901238387 -0.2855690901238386 0  </DataArray>
</Points>
<Cells>
<DataArray  type="UInt32"  Name="connectivity"  format="ascii">5 6 24 52  8 9 32 57  7 8 28 50  9 10 32 56  0 4 18 54  6 7 28 51  0 10 18 55  4 5 24 53  10 18 34 55  4 18 22 54  4 22 24 53  8 28 30 50  30 42 44 50  22 23 37 39  21 22 23 37  30 31 43 45  30 31 45 47  20 34 48 55  22 36 38 53  20 22 36 54  28 40 42 51  21 34 35 49  33 34 47 49  16 17 46 56  15 16 46 57  25 26 39 41  22 24 38 53  18 20 34 55  18 20 22 54  28 30 42 50  29 30 31 43  22 23 25 39  19 21 22 23  30 31 33 47  28 29 41 43  15 42 44 50  9 32 46 57  0 18 20 55  5 24 38 52  7 28 42 51  5 24 38 53  0 18 20 54  9 32 46 56  7 28 42 50  33 34 35 49  9 16 46 57  9 16 46 56  12 36 38 53  2 11 20 54  11 12 36 53  14 15 42 50  14 40 42 51  13 14 40 51  12 13 38 52  2 17 48 55  11 20 36 54  2 20 48 55  25 26 27 41  8 30 44 50  10 34 48 55  4 22 36 54  4 22 36 53  27 28 29 41  18 21 34 35  26 27 28 41  18 19 21 35  28 29 30 43  24 25 26 39  22 24 25 39  30 32 33 47  18 19 21 22  32 33 34 47  0 2 20 54  0 2 20 55  7 14 42 50  7 14 42 51  5 12 38 52  5 12 38 53  30 43 44 45  30 44 45 47  22 36 37 39  21 22 36 37  34 47 48 49  21 34 48 49  1 3 31 33  1 3 23 25  1 3 19 23  1 3 29 31  8 15 44 50  30 42 43 44  26 39 40 41  22 36 38 39  20 21 22 36  20 21 34 48  4 11 36 54  4 11 36 53  6 13 40 51  10 17 48 55  3 31 43 45  3 23 37 39  3 31 45 47  3 21 23 37  28 41 42 43  32 44 46 47  1 3 27 29  1 3 33 35  1 3 19 35  1 3 25 27  32 46 47 48  28 40 41 42  24 38 39 40  30 32 44 47  3 33 47 49  3 21 35 49  26 28 40 41  28 30 42 43  24 26 39 40  22 24 38 39  32 34 47 48  18 20 21 22  18 20 21 34  3 29 41 43  3 25 39 41  3 29 31 43  3 23 25 39  3 31 33 47  3 19 21 23  3 33 35 49  3 27 29 41  3 25 27 41  3 19 21 35  6 24 26 40  10 32 34 48  8 30 32 44  6 26 28 40  6 28 40 51  8 15 44 46  8 15 46 57  8 32 44 46  8 32 46 57  10 17 46 56  10 17 46 48  10 32 46 56  10 32 46 48  6 13 38 52  6 13 38 40  6 24 38 52  6 24 38 40  </DataArray>
<DataArray  type="UInt32"  Name="offsets"  format="ascii">4 8 12 16 20 24 28 32 36 40 44 48 52 56 60 64 68 72 76 80 84 88 92 96 100 104 108 112 116 120 124 128 132 136 140 144 148 152 156 160 164 168 172 176 180 184 188 192 196 200 204 208 212 216 220 224 228 232 236 240 244 248 252 256 260 264 268 272 276 280 284 288 292 296 300 304 308 312 316 320 324 328 332 336 340 344 348 352 356 360 364 368 372 376 380 384 388 392 396 400 404 408 412 416 420 424 428 432 436 440 444 448 452 456 460 464 468 472 476 480 484 488 492 496 500 504 508 512 516 520 524 528 532 536 540 544 548 552 556 560 564 568 572 576 580 584 588 592 </DataArray>
<DataArray  type="UInt8"  Name="types"  format="ascii">10 10 10 10 10 10 10 10 10 10 10 10 10 10 10 10 10 10 10 10 10 10 10 10 10 10 10 10 10 10 10 10 10 10 10 10 10 10 10 10 10 10 10 10 10 10 10 10 10 10 10 10 10 10 10 10 10 10 10 10 10 10 10 10 10 10 10 10 10 10 10 10 10 10 10 10 10 10 10 10 10 10 10 10 10 10 10 10 10 10 10 10 10 10 10 10 10 10 10 10 10 10 10 10 10 10 10 10 10 10 10 10 10 10 10 10 10 10 10 10 10 10 10 10 10 10 10 10 10 10 10 10 10 10 10 10 10 10 10 10 10 10 10 10 10 10 10 10 </DataArray>
</Cells>
<PointData  Vectors="f_37-0"> 
<DataArray  type="Float64"  Name="f_37-0"  NumberOfComponents="3" format="ascii">2.7236636722728049e-02 -1.4312094116619135e-02 0.0000000000000000e+00  -3.5074476094852522e-04 2.3346764461876527e-04 -3.2286497302502618e-02  4.5965581537185975e-02 -1.2541583826585628e-02 0.0000000000000000e+00  6.4876213450948120e-06 -3.8260297543496321e-05 -4.1367790423273459e-02  3.2056736920736774e-02 1.0836447873190826e-02 0.0000000000000000e+00  1.4422858399669333e-02 2.7666289332714339e-02 0.0000000000000000e+00  -1.0431947736058454e-02 3.1646826999314495e-02 0.0000000000000000e+00  -2.6995178974092406e-02 1.4951727765640863e-02 0.0000000000000000e+00  -3.1873955281014270e-02 -1.1130918177334153e-02 0.0000000000000000e+00  -1.4896598467369590e-02 -2.6078026119840284e-02 0.0000000000000000e+00  9.7558470432567504e-03 -3.1363925729044097e-02 0.0000000000000000e+00  4.2872796006784161e-02 2.5122713825397110e-02 0.0000000000000000e+00  1.2836269140889913e-02 4.6146127706820861e-02 0.0000000000000000e+00  -2.5008474110176763e-02 4.3751366305785626e-02 0.0000000000000000e+00  -4.6017118979609556e-02 1.2456861378643635e-02 0.0000000000000000e+00  -4.3331467705542151e-02 -2.6475872238427678e-02 0.0000000000000000e+00  -1.2183647254737870e-02 -4.6168047208022762e-02 0.0000000000000000e+00  2.4941492993769500e-02 -4.3370222503762275e-02 0.0000000000000000e+00  2.3862351077572969e-02 3.9836208375503990e-03 -2.2127979117246413e-02  7.3132298629008689e-03 1.6037854773509001e-02 -3.4683231231383962e-02  4.5404264890170340e-02 2.0393138131582582e-03 -2.0723085316063303e-02  2.8599319612355487e-02 1.3188288925731918e-02 -3.8208193250430775e-02  1.4886013432848576e-02 1.9931400160602013e-02 -2.0697984611046816e-02  -6.1969874821608982e-03 1.6464128483263552e-02 -3.4168918405487067e-02  -4.6084531891402002e-03 2.4354589226436477e-02 -2.1547179068903639e-02  -1.7713670147018874e-02 6.7193731016324306e-03 -3.4500440090111759e-02  -2.0694716613753938e-02 1.3009540451371213e-02 -1.9728876867712415e-02  -1.6668683272301959e-02 -6.6330781473567108e-03 -3.4545528610062652e-02  -2.4791566943910045e-02 -5.0695479538926062e-03 -2.1224181961926589e-02  -6.9550684021877588e-03 -1.5465750233564605e-02 -3.4865178431398039e-02  -1.2942451489849289e-02 -2.0736597589927731e-02 -1.9852717979705579e-02  6.8118296049717560e-03 -1.6670273686423834e-02 -3.3993465842605389e-02  4.5527879616049033e-03 -2.4889895553477745e-02 -2.1514213438471166e-02  1.7927011801640507e-02 -6.8829520546659353e-03 -3.4975702734762998e-02  1.9931630052385928e-02 -1.4296805710118715e-02 -2.0810551115432722e-02  1.6686685126756768e-02 6.0276686672376149e-03 -3.4837138320639074e-02  3.1948751266058693e-02 3.4117254034107730e-02 -2.1451292927571412e-02  1.1602359077952054e-02 2.9369842946805263e-02 -3.8993192640566089e-02  -1.8048967188597992e-03 4.6062494633068447e-02 -2.0944474077841443e-02  -1.2393835054255708e-02 2.9064894970381266e-02 -3.8604650129943914e-02  -3.2988517952816876e-02 3.0681039358792545e-02 -2.0813273095182931e-02  -2.8911015200979800e-02 1.0495354964768153e-02 -3.8281050558278566e-02  -4.6265458017852749e-02 -1.6717598564630460e-03 -2.1266029509783211e-02  -2.8806339238046683e-02 -1.3283413377489076e-02 -3.8521089875620626e-02  -3.1641805458113209e-02 -3.3595000159708392e-02 -2.1407301001036202e-02  -1.1316125414976563e-02 -2.8845336162523910e-02 -3.9439639988135426e-02  1.5119910140452021e-03 -4.6975247842769054e-02 -2.1412779144301647e-02  1.2561694542798008e-02 -2.9414215427107593e-02 -3.9163043125898980e-02  3.3693930809041379e-02 -3.1311138887816163e-02 -2.1427760740730124e-02  2.8837328701813509e-02 -1.1004058942050317e-02 -3.9417617565420240e-02  -4.1986657585052101e-02 -3.6893319407779943e-03 0.0000000000000000e+00  -3.1360365960931599e-02 2.6306022333540610e-02 0.0000000000000000e+00  -3.8606905188250176e-03 4.1118567301911380e-02 0.0000000000000000e+00  2.6793156179394841e-02 3.2229918493162112e-02 0.0000000000000000e+00  4.1389439804778272e-02 3.7391824265129549e-03 0.0000000000000000e+00  3.1820475179174863e-02 -2.6529383064660409e-02 0.0000000000000000e+00  3.6922727806415956e-03 -4.0520443069733778e-02 0.0000000000000000e+00  -2.6610482938025325e-02 -3.1480003112354722e-02 0.0000000000000000e+00  </DataArray> 
</PointData> 
</Piece>
</UnstructuredGrid>
</VTKFile>