<?xml version="1.0"?>
<VTKFile type="UnstructuredGrid"  version="0.1"  >
<UnstructuredGrid>
<Piece  NumberOfPoints="58" NumberOfCells="148">
<Points>
<DataArray  type="Float64"  NumberOfComponents="3"  format="ascii">0.4023249999999999 0 0  0 0 -0.8046499999999999  0.266805 0 0  0 0 -0.6691299999999999  0.2844867357408777 0.2844867357408777 0  2.775557561562891e-17 0.4023249999999999 0  -0.2844867357408777 0.2844867357408777 0  -0.4023249999999999 2.775557561562891e-17 0  -0.2844867357408777 -0.2844867357408777 0  -2.775557561562891e-17 -0.4023249999999999 0  0.2844867357408777 -0.2844867357408777 0  0.1886596247544768 0.1886596247544768 0  2.775557561562891e-17 0.266805 0  -0.1886596247544767 0.1886596247544768 0  -0.266805 8.326672684688674e-17 0  -0.1886596247544768 -0.1886596247544767 0  -1.387778780781446e-16 -0.266805 0  0.1886596247544766 -0.1886596247544769 0  0.3686082568662342 0 -0.3224491190562394  0.2536108874396318 0 -0.6246500569025265  0.2466044134321161 0 -0.2554056152626437  0.1766587270840894 0 -0.5014405794480644  0.2606453980314651 0.2606453980314651 -0.3224491190562516  0.1793299782912967 0.1793299782912967 -0.6246500569025382  2.542952674080888e-17 0.3686082568662342 -0.3224491190562394  1.749609435972772e-17 0.2536108874396318 -0.6246500569025265  -0.2606453980314651 0.2606453980314651 -0.3224491190562516  -0.1793299782912967 0.1793299782912967 -0.6246500569025382  -0.3686082568662342 2.542952674080888e-17 -0.3224491190562394  -0.2536108874396318 1.749609435972772e-17 -0.6246500569025265  -0.2606453980314651 -0.2606453980314651 -0.3224491190562516  -0.1793299782912967 -0.1793299782912967 -0.6246500569025382  -2.542952674080888e-17 -0.3686082568662342 -0.3224491190562394  -1.749609435972772e-17 -0.2536108874396318 -0.6246500569025265  0.2606453980314651 -0.2606453980314651 -0.3224491190562516  0.1793299782912967 -0.1793299782912967 -0.6246500569025382  0.1743756530083801 0.17437565300838 -0.2554056152626451  0.1249165838769436 0.1249165838769436 -0.5014405794480633  2.565411984094344e-17 0.2466044134321161 -0.2554056152626437  1.837770902997769e-17 0.1766587270840894 -0.5014405794480644  -0.1743756530083802 0.1743756530083803 -0.2554056152626436  -0.1249165838769431 0.1249165838769432 -0.5014405794480646  -0.2466044134321161 7.696235952283031e-17 -0.2554056152626437  -0.1766587270840894 5.513312708993305e-17 -0.5014405794480644  -0.1743756530083802 -0.17437565300838 -0.2554056152626445  -0.1249165838769429 -0.1249165838769428 -0.5014405794480657  -1.282705992047172e-16 -0.2466044134321161 -0.2554056152626437  -9.188854514988842e-17 -0.1766587270840894 -0.5014405794480644  0.1743756530083804 -0.1743756530083806 -0.2554056152626407  0.1249165838769432 -0.1249165838769434 -0.5014405794480641  -0.2855690901238386 -0.1182865901238386 0  -0.2855690901238385 0.1182865901238386 0  -0.1182865901238386 0.2855690901238386 -0  0.1182865901238386 0.2855690901238386 0  0.2855690901238386 0.1182865901238386 0  0.2855690901238386 -0.1182865901238386 0  0.1182865901238385 -0.2855690901238386 0  -0.1182865901238387 -0.2855690901238386 0  </DataArray>
</Points>
<Cells>
<DataArray  type="UInt32"  Name="connectivity"  format="ascii">5 6 24 52  8 9 32 57  7 8 28 50  9 10 32 56  0 4 18 54  6 7 28 51  0 10 18 55  4 5 24 53  10 18 34 55  4 18 22 54  4 22 24 53  8 28 30 50  30 42 44 50  22 23 37 39  21 22 23 37  30 31 43 45  30 31 45 47  20 34 48 55  22 36 38 53  20 22 36 54  28 40 42 51  21 34 35 49  33 34 47 49  16 17 46 56  15 16 46 57  25 26 39 41  22 24 38 53  18 20 34 55  18 20 22 54  28 30 42 50  29 30 31 43  22 23 25 39  19 21 22 23  30 31 33 47  28 29 41 43  15 42 44 50  9 32 46 57  0 18 20 55  5 24 38 52  7 28 42 51  5 24 38 53  0 18 20 54  9 32 46 56  7 28 42 50  33 34 35 49  9 16 46 57  9 16 46 56  12 36 38 53  2 11 20 54  11 12 36 53  14 15 42 50  14 40 42 51  13 14 40 51  12 13 38 52  2 17 48 55  11 20 36 54  2 20 48 55  25 26 27 41  8 30 44 50  10 34 48 55  4 22 36 54  4 22 36 53  27 28 29 41  18 21 34 35  26 27 28 41  18 19 21 35  28 29 30 43  24 25 26 39  22 24 25 39  30 32 33 47  18 19 21 22  32 33 34 47  0 2 20 54  0 2 20 55  7 14 42 50  7 14 42 51  5 12 38 52  5 12 38 53  30 43 44 45  30 44 45 47  22 36 37 39  21 22 36 37  34 47 48 49  21 34 48 49  1 3 31 33  1 3 23 25  1 3 19 23  1 3 29 31  8 15 44 50  30 42 43 44  26 39 40 41  22 36 38 39  20 21 22 36  20 21 34 48  4 11 36 54  4 11 36 53  6 13 40 51  10 17 48 55  3 31 43 45  3 23 37 39  3 31 45 47  3 21 23 37  28 41 42 43  32 44 46 47  1 3 27 29  1 3 33 35  1 3 19 35  1 3 25 27  32 46 47 48  28 40 41 42  24 38 39 40  30 32 44 47  3 33 47 49  3 21 35 49  26 28 40 41  28 30 42 43  24 26 39 40  22 24 38 39  32 34 47 48  18 20 21 22  18 20 21 34  3 29 41 43  3 25 39 41  3 29 31 43  3 23 25 39  3 31 33 47  3 19 21 23  3 33 35 49  3 27 29 41  3 25 27 41  3 19 21 35  6 24 26 40  10 32 34 48  8 30 32 44  6 26 28 40  6 28 40 51  8 15 44 46  8 15 46 57  8 32 44 46  8 32 46 57  10 17 46 56  10 17 46 48  10 32 46 56  10 32 46 48  6 13 38 52  6 13 38 40  6 24 38 52  6 24 38 40  </DataArray>
<DataArray  type="UInt32"  Name="offsets"  format="ascii">4 8 12 16 20 24 28 32 36 40 44 48 52 56 60 64 68 72 76 80 84 88 92 96 100 104 108 112 116 120 124 128 132 136 140 144 148 152 156 160 164 168 172 176 180 184 188 192 196 200 204 208 212 216 220 224 228 232 236 240 244 248 252 256 260 264 268 272 276 280 284 288 292 296 300 304 308 312 316 320 324 328 332 336 340 344 348 352 356 360 364 368 372 376 380 384 388 392 396 400 404 408 412 416 420 424 428 432 436 440 444 448 452 456 460 464 468 472 476 480 484 488 492 496 500 504 508 512 516 520 524 528 532 536 540 544 548 552 556 560 564 568 572 576 580 584 588 592 </DataArray>
<DataArray  type="UInt8"  Name="types"  format="ascii">10 10 10 10 10 10 10 10 10 10 10 10 10 10 10 10 10 10 10 10 10 10 10 10 10 10 10 10 10 10 10 10 10 10 10 10 10 10 10 10 10 10 10 10 10 10 10 10 10 10 10 10 10 10 10 10 10 10 10 10 10 10 10 10 10 10 10 10 10 10 10 10 10 10 10 10 10 10 10 10 10 10 10 10 10 10 10 10 10 10 10 10 10 10 10 10 10 10 10 10 10 10 10 10 10 10 10 10 10 10 10 10 10 10 10 10 10 10 10 10 10 10 10 10 10 10 10 10 10 10 10 10 10 10 10 10 10 10 10 10 10 10 10 10 10 10 10 10 </DataArray>
</Cells>
<PointData  Vectors="f_37-0"> 
<DataArray  type="Float64"  Name="f_37-0"  NumberOfComponents="3" format="ascii">3.4686579719906956e-02 -1.8465818314600257e-02 0.0000000000000000e+00  -6.3996914084430757e-04 5.7813748330567732e-04 -4.8086066423573562e-02  5.9996365936966473e-02 -1.6579282463686743e-02 0.0000000000000000e+00  -1.3482258949242039e-04 -1.6608271823391149e-04 -6.5876763170115177e-02  4.0820142503399937e-02 1.3119702472831960e-02 0.0000000000000000e+00  1.8385502180128500e-02 3.5090998814816469e-02 0.0000000000000000e+00  -1.3007973511949808e-02 4.0032756895031316e-02 0.0000000000000000e+00  -3.4023628637423614e-02 1.9532721448997887e-02 0.0000000000000000e+00  -4.0725461554805949e-02 -1.3438066431971141e-02 0.0000000000000000e+00  -1.9164382807214581e-02 -3.2759600676375282e-02 0.0000000000000000e+00  1.2296978660414713e-02 -3.9877844975739520e-02 0.0000000000000000e+00  5.5593656636543330e-02 3.2207331694372593e-02 0.0000000000000000e+00  1.6901179893625124e-02 6.0104104370577734e-02 0.0000000000000000e+00  -3.2293808338644529e-02 5.6713189351791690e-02 0.0000000000000000e+00  -5.9892066879434512e-02 1.6288749420106000e-02 0.0000000000000000e+00  -5.6454567938546946e-02 -3.4016062706013435e-02 0.0000000000000000e+00  -1.6059749695865745e-02 -5.9999009471780093e-02 0.0000000000000000e+00  3.2297357589181751e-02 -5.6344534647300035e-02 0.0000000000000000e+00  3.0871371066267993e-02 5.5033266132030797e-03 -3.2321331335491581e-02  1.0629049980987957e-02 2.1439886753968820e-02 -5.1778085222575085e-02  5.9536936769843563e-02 3.0678749085403445e-03 -3.0609302503852728e-02  3.8865765306210991e-02 1.8599255556987354e-02 -5.7926713570064146e-02  1.9014804072546906e-02 2.5798815965028029e-02 -2.9527015989164299e-02  -8.2099136345462082e-03 2.1847538554049861e-02 -4.9347506147550839e-02  -6.8011545540842041e-03 3.1710929943335360e-02 -3.1381484114790442e-02  -2.4227908409555309e-02 1.0018064488127502e-02 -5.0944927644688526e-02  -2.7559644331994714e-02 1.6808846076763122e-02 -2.8252249647428927e-02  -2.3173061303391307e-02 -8.5821959677062389e-03 -5.1861380187750036e-02  -3.1900697491142514e-02 -7.5333694021512661e-03 -3.0663248612809103e-02  -9.9348920096663917e-03 -2.0695406752773596e-02 -5.1694043873060563e-02  -1.5866201584152317e-02 -2.7582908116309961e-02 -2.8323369748574335e-02  9.5456827986036621e-03 -2.2366362760360598e-02 -4.9045428772307428e-02  6.6309196770378857e-03 -3.2877766852457968e-02 -3.1358316258642181e-02  2.4240260312963332e-02 -1.0009396917075340e-02 -5.1288230672763523e-02  2.6123674430093006e-02 -1.8715715910444016e-02 -2.9816170789834572e-02  2.3183769068527909e-02 7.5802071304760269e-03 -5.1374026137406131e-02  4.1747789572375051e-02 4.5147704211379001e-02 -3.1535294169660368e-02  1.4909453739702131e-02 4.0134693375575799e-02 -5.8897328904988056e-02  -2.8145586644682716e-03 6.0440339914340335e-02 -3.0880581749664571e-02  -1.7725275971711731e-02 3.9528189827357910e-02 -5.8326226370872744e-02  -4.3775628482158546e-02 4.0159474147397733e-02 -3.0718987161023222e-02  -3.9735529666970262e-02 1.3909034360221856e-02 -5.7870738017344568e-02  -6.0647095548782524e-02 -2.6531216297538671e-03 -3.1148776854198278e-02  -3.8919093711428217e-02 -1.8640976475148147e-02 -5.8294334501608779e-02  -4.1031135924396701e-02 -4.4472010188757578e-02 -3.1381815541545531e-02  -1.4541681126344430e-02 -3.9299941335244441e-02 -5.9202809777964896e-02  2.5824612348611465e-03 -6.1644526468026595e-02 -3.1330117374543463e-02  1.7860367663566787e-02 -4.0083023105460365e-02 -5.9165140489063017e-02  4.4647593993994060e-02 -4.1093885034592090e-02 -3.1428481967141396e-02  3.9376900440350311e-02 -1.4320171686809611e-02 -5.9226532827480673e-02  -5.4635166032615999e-02 -4.4578813396625068e-03 0.0000000000000000e+00  -4.0385477553216663e-02 3.4401623561001460e-02 0.0000000000000000e+00  -4.6591878145700412e-03 5.3055245783326307e-02 0.0000000000000000e+00  3.5157497994641414e-02 4.1491803946893530e-02 0.0000000000000000e+00  5.3860870092237265e-02 4.3922014886425944e-03 0.0000000000000000e+00  4.1067512624769251e-02 -3.4864429117487911e-02 0.0000000000000000e+00  4.4916185558298866e-03 -5.2489989466466005e-02 0.0000000000000000e+00  -3.4723720140700728e-02 -4.0422008647512296e-02 0.0000000000000000e+00  </DataArray> 
</PointData> 
</Piece>
</UnstructuredGrid>
</VTKFile>