<?xml version="1.0"?>
<VTKFile type="UnstructuredGrid"  version="0.1"  >
<UnstructuredGrid>
<Piece  NumberOfPoints="58" NumberOfCells="148">
<Points>
<DataArray  type="Float64"  NumberOfComponents="3"  format="ascii">0.4023249999999999 0 0  0 0 -0.8046499999999999  0.266805 0 0  0 0 -0.6691299999999999  0.2844867357408777 0.2844867357408777 0  2.775557561562891e-17 0.4023249999999999 0  -0.2844867357408777 0.2844867357408777 0  -0.4023249999999999 2.775557561562891e-17 0  -0.2844867357408777 -0.2844867357408777 0  -2.775557561562891e-17 -0.4023249999999999 0  0.2844867357408777 -0.2844867357408777 0  0.1886596247544768 0.1886596247544768 0  2.775557561562891e-17 0.266805 0  -0.1886596247544767 0.1886596247544768 0  -0.266805 8.326672684688674e-17 0  -0.1886596247544768 -0.1886596247544767 0  -1.387778780781446e-16 -0.266805 0  0.1886596247544766 -0.1886596247544769 0  0.3686082568662342 0 -0.3224491190562394  0.2536108874396318 0 -0.6246500569025265  0.2466044134321161 0 -0.2554056152626437  0.1766587270840894 0 -0.5014405794480644  0.2606453980314651 0.2606453980314651 -0.3224491190562516  0.1793299782912967 0.1793299782912967 -0.6246500569025382  2.542952674080888e-17 0.3686082568662342 -0.3224491190562394  1.749609435972772e-17 0.2536108874396318 -0.6246500569025265  -0.2606453980314651 0.2606453980314651 -0.3224491190562516  -0.1793299782912967 0.1793299782912967 -0.6246500569025382  -0.3686082568662342 2.542952674080888e-17 -0.3224491190562394  -0.2536108874396318 1.749609435972772e-17 -0.6246500569025265  -0.2606453980314651 -0.2606453980314651 -0.3224491190562516  -0.1793299782912967 -0.1793299782912967 -0.6246500569025382  -2.542952674080888e-17 -0.3686082568662342 -0.3224491190562394  -1.749609435972772e-17 -0.2536108874396318 -0.6246500569025265  0.2606453980314651 -0.2606453980314651 -0.3224491190562516  0.1793299782912967 -0.1793299782912967 -0.6246500569025382  0.1743756530083801 0.17437565300838 -0.2554056152626451  0.1249165838769436 0.1249165838769436 -0.5014405794480633  2.565411984094344e-17 0.2466044134321161 -0.2554056152626437  1.837770902997769e-17 0.1766587270840894 -0.5014405794480644  -0.1743756530083802 0.1743756530083803 -0.2554056152626436  -0.1249165838769431 0.1249165838769432 -0.5014405794480646  -0.2466044134321161 7.696235952283031e-17 -0.2554056152626437  -0.1766587270840894 5.513312708993305e-17 -0.5014405794480644  -0.1743756530083802 -0.17437565300838 -0.2554056152626445  -0.1249165838769429 -0.1249165838769428 -0.5014405794480657  -1.282705992047172e-16 -0.2466044134321161 -0.2554056152626437  -9.188854514988842e-17 -0.1766587270840894 -0.5014405794480644  0.1743756530083804 -0.1743756530083806 -0.2554056152626407  0.1249165838769432 -0.1249165838769434 -0.5014405794480641  -0.2855690901238386 -0.1182865901238386 0  -0.2855690901238385 0.1182865901238386 0  -0.1182865901238386 0.2855690901238386 -0  0.1182865901238386 0.2855690901238386 0  0.2855690901238386 0.1182865901238386 0  0.2855690901238386 -0.1182865901238386 0  0.1182865901238385 -0.2855690901238386 0  -0.1182865901238387 -0.2855690901238386 0  </DataArray>
</Points>
<Cells>
<DataArray  type="UInt32"  Name="connectivity"  format="ascii">5 6 24 52  8 9 32 57  7 8 28 50  9 10 32 56  0 4 18 54  6 7 28 51  0 10 18 55  4 5 24 53  10 18 34 55  4 18 22 54  4 22 24 53  8 28 30 50  30 42 44 50  22 23 37 39  21 22 23 37  30 31 43 45  30 31 45 47  20 34 48 55  22 36 38 53  20 22 36 54  28 40 42 51  21 34 35 49  33 34 47 49  16 17 46 56  15 16 46 57  25 26 39 41  22 24 38 53  18 20 34 55  18 20 22 54  28 30 42 50  29 30 31 43  22 23 25 39  19 21 22 23  30 31 33 47  28 29 41 43  15 42 44 50  9 32 46 57  0 18 20 55  5 24 38 52  7 28 42 51  5 24 38 53  0 18 20 54  9 32 46 56  7 28 42 50  33 34 35 49  9 16 46 57  9 16 46 56  12 36 38 53  2 11 20 54  11 12 36 53  14 15 42 50  14 40 42 51  13 14 40 51  12 13 38 52  2 17 48 55  11 20 36 54  2 20 48 55  25 26 27 41  8 30 44 50  10 34 48 55  4 22 36 54  4 22 36 53  27 28 29 41  18 21 34 35  26 27 28 41  18 19 21 35  28 29 30 43  24 25 26 39  22 24 25 39  30 32 33 47  18 19 21 22  32 33 34 47  0 2 20 54  0 2 20 55  7 14 42 50  7 14 42 51  5 12 38 52  5 12 38 53  30 43 44 45  30 44 45 47  22 36 37 39  21 22 36 37  34 47 48 49  21 34 48 49  1 3 31 33  1 3 23 25  1 3 19 23  1 3 29 31  8 15 44 50  30 42 43 44  26 39 40 41  22 36 38 39  20 21 22 36  20 21 34 48  4 11 36 54  4 11 36 53  6 13 40 51  10 17 48 55  3 31 43 45  3 23 37 39  3 31 45 47  3 21 23 37  28 41 42 43  32 44 46 47  1 3 27 29  1 3 33 35  1 3 19 35  1 3 25 27  32 46 47 48  28 40 41 42  24 38 39 40  30 32 44 47  3 33 47 49  3 21 35 49  26 28 40 41  28 30 42 43  24 26 39 40  22 24 38 39  32 34 47 48  18 20 21 22  18 20 21 34  3 29 41 43  3 25 39 41  3 29 31 43  3 23 25 39  3 31 33 47  3 19 21 23  3 33 35 49  3 27 29 41  3 25 27 41  3 19 21 35  6 24 26 40  10 32 34 48  8 30 32 44  6 26 28 40  6 28 40 51  8 15 44 46  8 15 46 57  8 32 44 46  8 32 46 57  10 17 46 56  10 17 46 48  10 32 46 56  10 32 46 48  6 13 38 52  6 13 38 40  6 24 38 52  6 24 38 40  </DataArray>
<DataArray  type="UInt32"  Name="offsets"  format="ascii">4 8 12 16 20 24 28 32 36 40 44 48 52 56 60 64 68 72 76 80 84 88 92 96 100 104 108 112 116 120 124 128 132 136 140 144 148 152 156 160 164 168 172 176 180 184 188 192 196 200 204 208 212 216 220 224 228 232 236 240 244 248 252 256 260 264 268 272 276 280 284 288 292 296 300 304 308 312 316 320 324 328 332 336 340 344 348 352 356 360 364 368 372 376 380 384 388 392 396 400 404 408 412 416 420 424 428 432 436 440 444 448 452 456 460 464 468 472 476 480 484 488 492 496 500 504 508 512 516 520 524 528 532 536 540 544 548 552 556 560 564 568 572 576 580 584 588 592 </DataArray>
<DataArray  type="UInt8"  Name="types"  format="ascii">10 10 10 10 10 10 10 10 10 10 10 10 10 10 10 10 10 10 10 10 10 10 10 10 10 10 10 10 10 10 10 10 10 10 10 10 10 10 10 10 10 10 10 10 10 10 10 10 10 10 10 10 10 10 10 10 10 10 10 10 10 10 10 10 10 10 10 10 10 10 10 10 10 10 10 10 10 10 10 10 10 10 10 10 10 10 10 10 10 10 10 10 10 10 10 10 10 10 10 10 10 10 10 10 10 10 10 10 10 10 10 10 10 10 10 10 10 10 10 10 10 10 10 10 10 10 10 10 10 10 10 10 10 10 10 10 10 10 10 10 10 10 10 10 10 10 10 10 </DataArray>
</Cells>
<PointData  Vectors="f_37-0"> 
<DataArray  type="Float64"  Name="f_37-0"  NumberOfComponents="3" format="ascii">2.8255052935065146e-02 -1.4877817624965237e-02 0.0000000000000000e+00  -3.7913451861954742e-04 2.6158271863728835e-04 -3.4430120998577014e-02  4.7825199323056698e-02 -1.3071727799895195e-02 0.0000000000000000e+00  -4.7318280979507114e-06 -5.2190914535744972e-05 -4.4416112864197908e-02  3.3254641874288164e-02 1.1172238106085182e-02 0.0000000000000000e+00  1.4968732116473432e-02 2.8690915685888579e-02 0.0000000000000000e+00  -1.0781532548324141e-02 3.2802382117461504e-02 0.0000000000000000e+00  -2.7977847579990316e-02 1.5562733505911563e-02 0.0000000000000000e+00  -3.3069226856125025e-02 -1.1477371106057692e-02 0.0000000000000000e+00  -1.5477667313289874e-02 -2.7021514488110271e-02 0.0000000000000000e+00  1.0095476051608324e-02 -3.2528322693670328e-02 0.0000000000000000e+00  4.4564617842020426e-02 2.6069633538592631e-02 0.0000000000000000e+00  1.3373014929903311e-02 4.7998049644521784e-02 0.0000000000000000e+00  -2.5978633702225400e-02 4.5472614466624456e-02 0.0000000000000000e+00  -4.7860398621636394e-02 1.2966305028468152e-02 0.0000000000000000e+00  -4.5073727869677539e-02 -2.7480247511092543e-02 0.0000000000000000e+00  -1.2700630071665714e-02 -4.8006689511570132e-02 0.0000000000000000e+00  2.5916887190665885e-02 -4.5090322634697574e-02 0.0000000000000000e+00  2.4808202625451498e-02 4.1750563009142760e-03 -2.3409208948300692e-02  7.7392647464811191e-03 1.6777504601378786e-02 -3.6853160077198632e-02  4.7279142650536697e-02 2.1598327568525381e-03 -2.1969239368380012e-02  2.9960728507656055e-02 1.3879176509458965e-02 -4.0698003051385018e-02  1.5447653887155768e-02 2.0726140275805913e-02 -2.1838378456124324e-02  -6.4564149994855297e-03 1.7229254869005967e-02 -3.6186379833109662e-02  -4.8699367502090269e-03 2.5337098101634141e-02 -2.2788717698785845e-02  -1.8569584209216054e-02 7.1418125342387557e-03 -3.6619777596785356e-02  -2.1594850166416261e-02 1.3509715970753493e-02 -2.0829069107791778e-02  -1.7526689475043912e-02 -6.9016290002304158e-03 -3.6732323742016938e-02  -2.5757109433021688e-02 -5.3600127317682215e-03 -2.2426689806470411e-02  -7.3549533704583931e-03 -1.6176832863284717e-02 -3.7021840654269403e-02  -1.3374549765379690e-02 -2.1629621587017447e-02 -2.0945435522074434e-02  7.1426899427649883e-03 -1.7465970249809757e-02 -3.5990889933313480e-02  4.8089233367953014e-03 -2.5934226668984890e-02 -2.2758978351942162e-02  1.8772789570872122e-02 -7.2956293348111940e-03 -3.7091857027680031e-02  2.0762448389517258e-02 -1.4874914848023576e-02 -2.1968104821255208e-02  1.7541994972799051e-02 6.2512192477900486e-03 -3.6970115588869736e-02  3.3254068886546820e-02 3.5563149019224603e-02 -2.2727608746985026e-02  1.2070175946194209e-02 3.0787502655401758e-02 -4.1507608122434814e-02  -1.9192591662173077e-03 4.7970341724716495e-02 -2.2198500801717924e-02  -1.3067402590752552e-02 3.0448118539277074e-02 -4.1098986592031796e-02  -3.4405611537583376e-02 3.1943485454355706e-02 -2.2063198708535521e-02  -3.0328137448579293e-02 1.0963271408240292e-02 -4.0757839907677812e-02  -4.8174704931797943e-02 -1.7863140023822650e-03 -2.2517391315074031e-02  -3.0153903414785802e-02 -1.3976834584572301e-02 -4.1019005725242454e-02  -3.2902627095940974e-02 -3.5021188186702516e-02 -2.2671516965744487e-02  -1.1772477352681238e-02 -3.0224677651748490e-02 -4.1944902180524830e-02  1.6349455645634117e-03 -4.8919143042723670e-02 -2.2668868899257788e-02  1.3233431220108312e-02 -3.0819309877827751e-02 -4.1687814104473662e-02  3.5133387176392250e-02 -3.2611752894272331e-02 -2.2694143262129637e-02  3.0224945389494395e-02 -1.1463092867009831e-02 -4.1925366058221836e-02  -4.3662497973788905e-02 -3.7937557382208107e-03 0.0000000000000000e+00  -3.2560957254058158e-02 2.7379578802119615e-02 0.0000000000000000e+00  -3.9701432918478616e-03 4.2711335553227481e-02 0.0000000000000000e+00  2.7898575835306402e-02 3.3466549695602407e-02 0.0000000000000000e+00  4.3040304219871206e-02 3.8297387034257270e-03 0.0000000000000000e+00  3.3050956378704206e-02 -2.7629684989118046e-02 0.0000000000000000e+00  3.7993793927685472e-03 -4.2112956800584890e-02 0.0000000000000000e+00  -2.7689187265960737e-02 -3.2678840900990942e-02 0.0000000000000000e+00  </DataArray> 
</PointData> 
</Piece>
</UnstructuredGrid>
</VTKFile>