<?xml version="1.0"?>
<VTKFile type="UnstructuredGrid"  version="0.1"  >
<UnstructuredGrid>
<Piece  NumberOfPoints="58" NumberOfCells="148">
<Points>
<DataArray  type="Float64"  NumberOfComponents="3"  format="ascii">0.4023249999999999 0 0  0 0 -0.8046499999999999  0.266805 0 0  0 0 -0.6691299999999999  0.2844867357408777 0.2844867357408777 0  2.775557561562891e-17 0.4023249999999999 0  -0.2844867357408777 0.2844867357408777 0  -0.4023249999999999 2.775557561562891e-17 0  -0.2844867357408777 -0.2844867357408777 0  -2.775557561562891e-17 -0.4023249999999999 0  0.2844867357408777 -0.2844867357408777 0  0.1886596247544768 0.1886596247544768 0  2.775557561562891e-17 0.266805 0  -0.1886596247544767 0.1886596247544768 0  -0.266805 8.326672684688674e-17 0  -0.1886596247544768 -0.1886596247544767 0  -1.387778780781446e-16 -0.266805 0  0.1886596247544766 -0.1886596247544769 0  0.3686082568662342 0 -0.3224491190562394  0.2536108874396318 0 -0.6246500569025265  0.2466044134321161 0 -0.2554056152626437  0.1766587270840894 0 -0.5014405794480644  0.2606453980314651 0.2606453980314651 -0.3224491190562516  0.1793299782912967 0.1793299782912967 -0.6246500569025382  2.542952674080888e-17 0.3686082568662342 -0.3224491190562394  1.749609435972772e-17 0.2536108874396318 -0.6246500569025265  -0.2606453980314651 0.2606453980314651 -0.3224491190562516  -0.1793299782912967 0.1793299782912967 -0.6246500569025382  -0.3686082568662342 2.542952674080888e-17 -0.3224491190562394  -0.2536108874396318 1.749609435972772e-17 -0.6246500569025265  -0.2606453980314651 -0.2606453980314651 -0.3224491190562516  -0.1793299782912967 -0.1793299782912967 -0.6246500569025382  -2.542952674080888e-17 -0.3686082568662342 -0.3224491190562394  -1.749609435972772e-17 -0.2536108874396318 -0.6246500569025265  0.2606453980314651 -0.2606453980314651 -0.3224491190562516  0.1793299782912967 -0.1793299782912967 -0.6246500569025382  0.1743756530083801 0.17437565300838 -0.2554056152626451  0.1249165838769436 0.1249165838769436 -0.5014405794480633  2.565411984094344e-17 0.2466044134321161 -0.2554056152626437  1.837770902997769e-17 0.1766587270840894 -0.5014405794480644  -0.1743756530083802 0.1743756530083803 -0.2554056152626436  -0.1249165838769431 0.1249165838769432 -0.5014405794480646  -0.2466044134321161 7.696235952283031e-17 -0.2554056152626437  -0.1766587270840894 5.513312708993305e-17 -0.5014405794480644  -0.1743756530083802 -0.17437565300838 -0.2554056152626445  -0.1249165838769429 -0.1249165838769428 -0.5014405794480657  -1.282705992047172e-16 -0.2466044134321161 -0.2554056152626437  -9.188854514988842e-17 -0.1766587270840894 -0.5014405794480644  0.1743756530083804 -0.1743756530083806 -0.2554056152626407  0.1249165838769432 -0.1249165838769434 -0.5014405794480641  -0.2855690901238386 -0.1182865901238386 0  -0.2855690901238385 0.1182865901238386 0  -0.1182865901238386 0.2855690901238386 -0  0.1182865901238386 0.2855690901238386 0  0.2855690901238386 0.1182865901238386 0  0.2855690901238386 -0.1182865901238386 0  0.1182865901238385 -0.2855690901238386 0  -0.1182865901238387 -0.2855690901238386 0  </DataArray>
</Points>
<Cells>
<DataArray  type="UInt32"  Name="connectivity"  format="ascii">5 6 24 52  8 9 32 57  7 8 28 50  9 10 32 56  0 4 18 54  6 7 28 51  0 10 18 55  4 5 24 53  10 18 34 55  4 18 22 54  4 22 24 53  8 28 30 50  30 42 44 50  22 23 37 39  21 22 23 37  30 31 43 45  30 31 45 47  20 34 48 55  22 36 38 53  20 22 36 54  28 40 42 51  21 34 35 49  33 34 47 49  16 17 46 56  15 16 46 57  25 26 39 41  22 24 38 53  18 20 34 55  18 20 22 54  28 30 42 50  29 30 31 43  22 23 25 39  19 21 22 23  30 31 33 47  28 29 41 43  15 42 44 50  9 32 46 57  0 18 20 55  5 24 38 52  7 28 42 51  5 24 38 53  0 18 20 54  9 32 46 56  7 28 42 50  33 34 35 49  9 16 46 57  9 16 46 56  12 36 38 53  2 11 20 54  11 12 36 53  14 15 42 50  14 40 42 51  13 14 40 51  12 13 38 52  2 17 48 55  11 20 36 54  2 20 48 55  25 26 27 41  8 30 44 50  10 34 48 55  4 22 36 54  4 22 36 53  27 28 29 41  18 21 34 35  26 27 28 41  18 19 21 35  28 29 30 43  24 25 26 39  22 24 25 39  30 32 33 47  18 19 21 22  32 33 34 47  0 2 20 54  0 2 20 55  7 14 42 50  7 14 42 51  5 12 38 52  5 12 38 53  30 43 44 45  30 44 45 47  22 36 37 39  21 22 36 37  34 47 48 49  21 34 48 49  1 3 31 33  1 3 23 25  1 3 19 23  1 3 29 31  8 15 44 50  30 42 43 44  26 39 40 41  22 36 38 39  20 21 22 36  20 21 34 48  4 11 36 54  4 11 36 53  6 13 40 51  10 17 48 55  3 31 43 45  3 23 37 39  3 31 45 47  3 21 23 37  28 41 42 43  32 44 46 47  1 3 27 29  1 3 33 35  1 3 19 35  1 3 25 27  32 46 47 48  28 40 41 42  24 38 39 40  30 32 44 47  3 33 47 49  3 21 35 49  26 28 40 41  28 30 42 43  24 26 39 40  22 24 38 39  32 34 47 48  18 20 21 22  18 20 21 34  3 29 41 43  3 25 39 41  3 29 31 43  3 23 25 39  3 31 33 47  3 19 21 23  3 33 35 49  3 27 29 41  3 25 27 41  3 19 21 35  6 24 26 40  10 32 34 48  8 30 32 44  6 26 28 40  6 28 40 51  8 15 44 46  8 15 46 57  8 32 44 46  8 32 46 57  10 17 46 56  10 17 46 48  10 32 46 56  10 32 46 48  6 13 38 52  6 13 38 40  6 24 38 52  6 24 38 40  </DataArray>
<DataArray  type="UInt32"  Name="offsets"  format="ascii">4 8 12 16 20 24 28 32 36 40 44 48 52 56 60 64 68 72 76 80 84 88 92 96 100 104 108 112 116 120 124 128 132 136 140 144 148 152 156 160 164 168 172 176 180 184 188 192 196 200 204 208 212 216 220 224 228 232 236 240 244 248 252 256 260 264 268 272 276 280 284 288 292 296 300 304 308 312 316 320 324 328 332 336 340 344 348 352 356 360 364 368 372 376 380 384 388 392 396 400 404 408 412 416 420 424 428 432 436 440 444 448 452 456 460 464 468 472 476 480 484 488 492 496 500 504 508 512 516 520 524 528 532 536 540 544 548 552 556 560 564 568 572 576 580 584 588 592 </DataArray>
<DataArray  type="UInt8"  Name="types"  format="ascii">10 10 10 10 10 10 10 10 10 10 10 10 10 10 10 10 10 10 10 10 10 10 10 10 10 10 10 10 10 10 10 10 10 10 10 10 10 10 10 10 10 10 10 10 10 10 10 10 10 10 10 10 10 10 10 10 10 10 10 10 10 10 10 10 10 10 10 10 10 10 10 10 10 10 10 10 10 10 10 10 10 10 10 10 10 10 10 10 10 10 10 10 10 10 10 10 10 10 10 10 10 10 10 10 10 10 10 10 10 10 10 10 10 10 10 10 10 10 10 10 10 10 10 10 10 10 10 10 10 10 10 10 10 10 10 10 10 10 10 10 10 10 10 10 10 10 10 10 </DataArray>
</Cells>
<PointData  Vectors="f_37-0"> 
<DataArray  type="Float64"  Name="f_37-0"  NumberOfComponents="3" format="ascii">1.7931470834942741e-02 -9.1888917905103215e-03 0.0000000000000000e+00  -1.6719105625299368e-04 1.0980338132109732e-04 -1.5245773308186220e-02  2.9522342802664202e-02 -7.9440758925775588e-03 0.0000000000000000e+00  4.2265333173015702e-05 3.9226994147143337e-05 -1.8713792852111239e-02  2.1117688530791247e-02 7.5518233831515383e-03 0.0000000000000000e+00  9.4093913881007109e-03 1.8244619590419939e-02 0.0000000000000000e+00  -7.1840559992426964e-03 2.0946305486580663e-02 0.0000000000000000e+00  -1.7873193439948878e-02 9.5256160502694802e-03 0.0000000000000000e+00  -2.1032366198925550e-02 -7.7185372084938586e-03 0.0000000000000000e+00  -9.6184680576555867e-03 -1.7245384189392469e-02 0.0000000000000000e+00  6.6734366644641933e-03 -2.0681620428277207e-02 0.0000000000000000e+00  2.7826311182769896e-02 1.6576154199086538e-02 0.0000000000000000e+00  8.1653819409408437e-03 2.9744606151872452e-02 0.0000000000000000e+00  -1.6300110190800948e-02 2.8446361352409216e-02 0.0000000000000000e+00  -2.9663027317270010e-02 7.9623582002732868e-03 0.0000000000000000e+00  -2.7912090766748322e-02 -1.7467380485630526e-02 0.0000000000000000e+00  -7.6420872971960192e-03 -2.9821853581707709e-02 0.0000000000000000e+00  1.6231759634337602e-02 -2.8111876289335796e-02 0.0000000000000000e+00  1.5324209715210707e-02 2.4290505044303485e-03 -1.1993864545658530e-02  3.9198933209189483e-03 9.6358161678271811e-03 -1.7653787103914641e-02  2.8836519633569552e-02 1.1703431932407809e-03 -1.0865497439583264e-02  1.6915964180736709e-02 7.5802324289180505e-03 -1.8845796738939803e-02  9.7170202999149226e-03 1.2780991855471328e-02 -1.1440186160049468e-02  -3.9495519501706131e-03 9.7228117787617283e-03 -1.7715861826404836e-02  -2.6275965749851041e-03 1.5583987505566495e-02 -1.1693170149647049e-02  -1.0520174740896565e-02 3.4511177017959318e-03 -1.7645556494104219e-02  -1.2912247644070698e-02 8.4773790518568246e-03 -1.0818511537553411e-02  -9.5644658644601366e-03 -4.2092205666394798e-03 -1.7470831676130085e-02  -1.6015053781074359e-02 -2.8867423108763831e-03 -1.1589018691618861e-02  -3.7048783269911789e-03 -9.2907503366304028e-03 -1.7796784184081215e-02  -8.6551180613315352e-03 -1.3029945887160234e-02 -1.0986035833429953e-02  4.1604054328770327e-03 -9.7445740151689449e-03 -1.7681270289913672e-02  2.5775380236074115e-03 -1.5771970544039352e-02 -1.1637497351199119e-02  1.0710837287077729e-02 -3.6122748319247721e-03 -1.8048586114443009e-02  1.2592563269977836e-02 -9.1777250151338381e-03 -1.1451349154045803e-02  9.6008755362894157e-03 3.9329510650082476e-03 -1.7856551220802267e-02  2.0360802961643269e-02 2.1554375790121594e-02 -1.1317175237104446e-02  7.2375053030016880e-03 1.7345500491638969e-02 -1.9411666853634359e-02  -1.0100653150335490e-03 2.9231481404052705e-02 -1.1004858888179852e-02  -6.9992003607356329e-03 1.7217823244219319e-02 -1.9138173226119184e-02  -2.0679142533233760e-02 1.9478527862957271e-02 -1.0898903164114295e-02  -1.6963653585632645e-02 6.2969168376214866e-03 -1.8967210179468071e-02  -2.9399267411887930e-02 -8.6655540425988335e-04 -1.1293305944688513e-02  -1.7154862993986778e-02 -7.6058269735830167e-03 -1.9073123670286546e-02  -2.0319316858778590e-02 -2.1200205092985317e-02 -1.1333856378108558e-02  -7.0516630537012627e-03 -1.7091641922663586e-02 -1.9811426996870482e-02  6.8376802784574217e-04 -2.9849147251280503e-02 -1.1390764102302522e-02  7.1563663681101820e-03 -1.7427777829801108e-02 -1.9490943125348669e-02  2.1181006607453257e-02 -1.9817482108791779e-02 -1.1344350883813274e-02  1.7037387607076442e-02 -6.7949044020678522e-03 -1.9781778536258218e-02  -2.7150372648387114e-02 -2.6818877088509770e-03 0.0000000000000000e+00  -2.0588436144741616e-02 1.6832186421355266e-02 0.0000000000000000e+00  -2.7874660610908977e-03 2.6856125695445543e-02 0.0000000000000000e+00  1.7098674095051822e-02 2.1130138120880999e-02 0.0000000000000000e+00  2.6776249621910862e-02 2.8026618415064306e-03 0.0000000000000000e+00  2.0810128493689115e-02 -1.6885563698499542e-02 0.0000000000000000e+00  2.6655764123765979e-03 -2.6333673646627202e-02 0.0000000000000000e+00  -1.7063217716309330e-02 -2.0665452153136431e-02 0.0000000000000000e+00  </DataArray> 
</PointData> 
</Piece>
</UnstructuredGrid>
</VTKFile>