<?xml version="1.0"?>
<VTKFile type="UnstructuredGrid"  version="0.1"  >
<UnstructuredGrid>
<Piece  NumberOfPoints="58" NumberOfCells="148">
<Points>
<DataArray  type="Float64"  NumberOfComponents="3"  format="ascii">0.4023249999999999 0 0  0 0 -0.8046499999999999  0.266805 0 0  0 0 -0.6691299999999999  0.2844867357408777 0.2844867357408777 0  2.775557561562891e-17 0.4023249999999999 0  -0.2844867357408777 0.2844867357408777 0  -0.4023249999999999 2.775557561562891e-17 0  -0.2844867357408777 -0.2844867357408777 0  -2.775557561562891e-17 -0.4023249999999999 0  0.2844867357408777 -0.2844867357408777 0  0.1886596247544768 0.1886596247544768 0  2.775557561562891e-17 0.266805 0  -0.1886596247544767 0.1886596247544768 0  -0.266805 8.326672684688674e-17 0  -0.1886596247544768 -0.1886596247544767 0  -1.387778780781446e-16 -0.266805 0  0.1886596247544766 -0.1886596247544769 0  0.3686082568662342 0 -0.3224491190562394  0.2536108874396318 0 -0.6246500569025265  0.2466044134321161 0 -0.2554056152626437  0.1766587270840894 0 -0.5014405794480644  0.2606453980314651 0.2606453980314651 -0.3224491190562516  0.1793299782912967 0.1793299782912967 -0.6246500569025382  2.542952674080888e-17 0.3686082568662342 -0.3224491190562394  1.749609435972772e-17 0.2536108874396318 -0.6246500569025265  -0.2606453980314651 0.2606453980314651 -0.3224491190562516  -0.1793299782912967 0.1793299782912967 -0.6246500569025382  -0.3686082568662342 2.542952674080888e-17 -0.3224491190562394  -0.2536108874396318 1.749609435972772e-17 -0.6246500569025265  -0.2606453980314651 -0.2606453980314651 -0.3224491190562516  -0.1793299782912967 -0.1793299782912967 -0.6246500569025382  -2.542952674080888e-17 -0.3686082568662342 -0.3224491190562394  -1.749609435972772e-17 -0.2536108874396318 -0.6246500569025265  0.2606453980314651 -0.2606453980314651 -0.3224491190562516  0.1793299782912967 -0.1793299782912967 -0.6246500569025382  0.1743756530083801 0.17437565300838 -0.2554056152626451  0.1249165838769436 0.1249165838769436 -0.5014405794480633  2.565411984094344e-17 0.2466044134321161 -0.2554056152626437  1.837770902997769e-17 0.1766587270840894 -0.5014405794480644  -0.1743756530083802 0.1743756530083803 -0.2554056152626436  -0.1249165838769431 0.1249165838769432 -0.5014405794480646  -0.2466044134321161 7.696235952283031e-17 -0.2554056152626437  -0.1766587270840894 5.513312708993305e-17 -0.5014405794480644  -0.1743756530083802 -0.17437565300838 -0.2554056152626445  -0.1249165838769429 -0.1249165838769428 -0.5014405794480657  -1.282705992047172e-16 -0.2466044134321161 -0.2554056152626437  -9.188854514988842e-17 -0.1766587270840894 -0.5014405794480644  0.1743756530083804 -0.1743756530083806 -0.2554056152626407  0.1249165838769432 -0.1249165838769434 -0.5014405794480641  -0.2855690901238386 -0.1182865901238386 0  -0.2855690901238385 0.1182865901238386 0  -0.1182865901238386 0.2855690901238386 -0  0.1182865901238386 0.2855690901238386 0  0.2855690901238386 0.1182865901238386 0  0.2855690901238386 -0.1182865901238386 0  0.1182865901238385 -0.2855690901238386 0  -0.1182865901238387 -0.2855690901238386 0  </DataArray>
</Points>
<Cells>
<DataArray  type="UInt32"  Name="connectivity"  format="ascii">5 6 24 52  8 9 32 57  7 8 28 50  9 10 32 56  0 4 18 54  6 7 28 51  0 10 18 55  4 5 24 53  10 18 34 55  4 18 22 54  4 22 24 53  8 28 30 50  30 42 44 50  22 23 37 39  21 22 23 37  30 31 43 45  30 31 45 47  20 34 48 55  22 36 38 53  20 22 36 54  28 40 42 51  21 34 35 49  33 34 47 49  16 17 46 56  15 16 46 57  25 26 39 41  22 24 38 53  18 20 34 55  18 20 22 54  28 30 42 50  29 30 31 43  22 23 25 39  19 21 22 23  30 31 33 47  28 29 41 43  15 42 44 50  9 32 46 57  0 18 20 55  5 24 38 52  7 28 42 51  5 24 38 53  0 18 20 54  9 32 46 56  7 28 42 50  33 34 35 49  9 16 46 57  9 16 46 56  12 36 38 53  2 11 20 54  11 12 36 53  14 15 42 50  14 40 42 51  13 14 40 51  12 13 38 52  2 17 48 55  11 20 36 54  2 20 48 55  25 26 27 41  8 30 44 50  10 34 48 55  4 22 36 54  4 22 36 53  27 28 29 41  18 21 34 35  26 27 28 41  18 19 21 35  28 29 30 43  24 25 26 39  22 24 25 39  30 32 33 47  18 19 21 22  32 33 34 47  0 2 20 54  0 2 20 55  7 14 42 50  7 14 42 51  5 12 38 52  5 12 38 53  30 43 44 45  30 44 45 47  22 36 37 39  21 22 36 37  34 47 48 49  21 34 48 49  1 3 31 33  1 3 23 25  1 3 19 23  1 3 29 31  8 15 44 50  30 42 43 44  26 39 40 41  22 36 38 39  20 21 22 36  20 21 34 48  4 11 36 54  4 11 36 53  6 13 40 51  10 17 48 55  3 31 43 45  3 23 37 39  3 31 45 47  3 21 23 37  28 41 42 43  32 44 46 47  1 3 27 29  1 3 33 35  1 3 19 35  1 3 25 27  32 46 47 48  28 40 41 42  24 38 39 40  30 32 44 47  3 33 47 49  3 21 35 49  26 28 40 41  28 30 42 43  24 26 39 40  22 24 38 39  32 34 47 48  18 20 21 22  18 20 21 34  3 29 41 43  3 25 39 41  3 29 31 43  3 23 25 39  3 31 33 47  3 19 21 23  3 33 35 49  3 27 29 41  3 25 27 41  3 19 21 35  6 24 26 40  10 32 34 48  8 30 32 44  6 26 28 40  6 28 40 51  8 15 44 46  8 15 46 57  8 32 44 46  8 32 46 57  10 17 46 56  10 17 46 48  10 32 46 56  10 32 46 48  6 13 38 52  6 13 38 40  6 24 38 52  6 24 38 40  </DataArray>
<DataArray  type="UInt32"  Name="offsets"  format="ascii">4 8 12 16 20 24 28 32 36 40 44 48 52 56 60 64 68 72 76 80 84 88 92 96 100 104 108 112 116 120 124 128 132 136 140 144 148 152 156 160 164 168 172 176 180 184 188 192 196 200 204 208 212 216 220 224 228 232 236 240 244 248 252 256 260 264 268 272 276 280 284 288 292 296 300 304 308 312 316 320 324 328 332 336 340 344 348 352 356 360 364 368 372 376 380 384 388 392 396 400 404 408 412 416 420 424 428 432 436 440 444 448 452 456 460 464 468 472 476 480 484 488 492 496 500 504 508 512 516 520 524 528 532 536 540 544 548 552 556 560 564 568 572 576 580 584 588 592 </DataArray>
<DataArray  type="UInt8"  Name="types"  format="ascii">10 10 10 10 10 10 10 10 10 10 10 10 10 10 10 10 10 10 10 10 10 10 10 10 10 10 10 10 10 10 10 10 10 10 10 10 10 10 10 10 10 10 10 10 10 10 10 10 10 10 10 10 10 10 10 10 10 10 10 10 10 10 10 10 10 10 10 10 10 10 10 10 10 10 10 10 10 10 10 10 10 10 10 10 10 10 10 10 10 10 10 10 10 10 10 10 10 10 10 10 10 10 10 10 10 10 10 10 10 10 10 10 10 10 10 10 10 10 10 10 10 10 10 10 10 10 10 10 10 10 10 10 10 10 10 10 10 10 10 10 10 10 10 10 10 10 10 10 </DataArray>
</Cells>
<PointData  Vectors="f_37-0"> 
<DataArray  type="Float64"  Name="f_37-0"  NumberOfComponents="3" format="ascii">4.2639571097937715e-02 -2.3543824871591377e-02 0.0000000000000000e+00  -1.5099269028362450e-03 1.2774446780559844e-03 -6.1692373293264366e-02  7.7628907702686240e-02 -2.2007816870329742e-02 0.0000000000000000e+00  -5.4247160380975913e-04 -4.8458854739055805e-04 -9.9054457906894475e-02  5.0503037254274630e-02 1.4169790825821857e-02 0.0000000000000000e+00  2.3027465219653410e-02 4.2580466517455805e-02 0.0000000000000000e+00  -1.5678069537025222e-02 4.9399477110817921e-02 0.0000000000000000e+00  -4.0494859309051931e-02 2.5420927500344324e-02 0.0000000000000000e+00  -5.1206412421426768e-02 -1.4361939388747729e-02 0.0000000000000000e+00  -2.4499757139668139e-02 -3.8703936673326111e-02 0.0000000000000000e+00  1.4918270250121199e-02 -4.9565336426395934e-02 0.0000000000000000e+00  7.1584167328079720e-02 4.0782004183040801e-02 0.0000000000000000e+00  2.2212436906317922e-02 7.7548395569680115e-02 0.0000000000000000e+00  -4.1205654368361079e-02 7.3092359907050680e-02 0.0000000000000000e+00  -7.7205858115136680e-02 2.1257578511514334e-02 0.0000000000000000e+00  -7.2974810212076580e-02 -4.3246425573334212e-02 0.0000000000000000e+00  -2.1025006445790841e-02 -7.7295374158406371e-02 0.0000000000000000e+00  4.1417940667934285e-02 -7.2863240813476601e-02 0.0000000000000000e+00  3.9118953834945160e-02 7.1867508832369874e-03 -4.6313161469856944e-02  1.5087960490943474e-02 2.6146752068188141e-02 -7.3863312752744506e-02  7.7278060668757045e-02 4.3379446096009286e-03 -4.4006365997013096e-02  5.1500584451091250e-02 2.5411635716509118e-02 -8.4215565516843602e-02  2.4174802289776153e-02 3.2213793349717558e-02 -4.0545086539783448e-02  -1.0430225260598997e-02 2.5946439736658299e-02 -6.5965173147262648e-02  -9.9418565458811638e-03 4.0724283988342526e-02 -4.4621970588020636e-02  -3.1542405122328018e-02 1.3967806094193871e-02 -7.0886522149033140e-02  -3.5985085744956569e-02 2.2387930261003906e-02 -3.8793398287287714e-02  -3.0133932057920906e-02 -1.0314886708584456e-02 -7.4547835275471347e-02  -4.0090572120474635e-02 -1.1269239097647727e-02 -4.3003343369028814e-02  -1.2989584244143114e-02 -2.5744503021754274e-02 -7.2807379881922041e-02  -1.8466223766506640e-02 -3.6110243598480536e-02 -3.8959418135478645e-02  1.3429814927982557e-02 -2.7470440881204202e-02 -6.5740307992441932e-02  9.1022545463846204e-03 -4.3485115912676391e-02 -4.4527024323547583e-02  3.0689670091565251e-02 -1.3122640012535195e-02 -7.0337132162422294e-02  3.2917940769637673e-02 -2.5032578710699818e-02 -4.1268405910169573e-02  3.0415709341795955e-02 8.3669591820328560e-03 -7.1609692280364831e-02  5.4130232564369336e-02 5.9079584900373912e-02 -4.5014390382281888e-02  1.8636995414396434e-02 5.3275512697587429e-02 -8.5447205743744786e-02  -4.2125109761754573e-03 7.8390618359430092e-02 -4.4316569373405390e-02  -2.4641822535329257e-02 5.2497140634298646e-02 -8.4585753447788237e-02  -5.7301317592264395e-02 5.2159853520315415e-02 -4.4148628084158419e-02  -5.3165554947661148e-02 1.8060827538564882e-02 -8.3937611906518245e-02  -7.8628621871499230e-02 -3.8886967870097131e-03 -4.4408614036998612e-02  -5.1286824774381602e-02 -2.5146230446511732e-02 -8.4638829009052410e-02  -5.2701721169582938e-02 -5.8261126096076588e-02 -4.4708089801302850e-02  -1.8217698627855359e-02 -5.2146983352039045e-02 -8.5392742825355542e-02  3.9713838636654198e-03 -8.0053911261055155e-02 -4.4659221213842838e-02  2.4668525371413882e-02 -5.3457767380819622e-02 -8.5906266488193092e-02  5.8373687100657899e-02 -5.3514806449913542e-02 -4.4825876690567569e-02  5.2304595091316734e-02 -1.8348864800764232e-02 -8.5558845007266446e-02  -7.0650016441298466e-02 -5.1678014523807965e-03 0.0000000000000000e+00  -5.1679768282949567e-02 4.4744633184939965e-02 0.0000000000000000e+00  -5.3685815258373466e-03 6.7874893844666204e-02 0.0000000000000000e+00  4.5907215836403566e-02 5.2790490013548422e-02 0.0000000000000000e+00  6.9717866828378855e-02 4.9492697719873456e-03 0.0000000000000000e+00  5.2533406837362698e-02 -4.5662592832416325e-02 0.0000000000000000e+00  5.2741969348093489e-03 -6.7520835733459100e-02 0.0000000000000000e+00  -4.5070673356842290e-02 -5.1270372355689278e-02 0.0000000000000000e+00  </DataArray> 
</PointData> 
</Piece>
</UnstructuredGrid>
</VTKFile>