<?xml version="1.0"?>
<VTKFile type="UnstructuredGrid"  version="0.1"  >
<UnstructuredGrid>
<Piece  NumberOfPoints="58" NumberOfCells="148">
<Points>
<DataArray  type="Float64"  NumberOfComponents="3"  format="ascii">0.4023249999999999 0 0  0 0 -0.8046499999999999  0.266805 0 0  0 0 -0.6691299999999999  0.2844867357408777 0.2844867357408777 0  2.775557561562891e-17 0.4023249999999999 0  -0.2844867357408777 0.2844867357408777 0  -0.4023249999999999 2.775557561562891e-17 0  -0.2844867357408777 -0.2844867357408777 0  -2.775557561562891e-17 -0.4023249999999999 0  0.2844867357408777 -0.2844867357408777 0  0.1886596247544768 0.1886596247544768 0  2.775557561562891e-17 0.266805 0  -0.1886596247544767 0.1886596247544768 0  -0.266805 8.326672684688674e-17 0  -0.1886596247544768 -0.1886596247544767 0  -1.387778780781446e-16 -0.266805 0  0.1886596247544766 -0.1886596247544769 0  0.3686082568662342 0 -0.3224491190562394  0.2536108874396318 0 -0.6246500569025265  0.2466044134321161 0 -0.2554056152626437  0.1766587270840894 0 -0.5014405794480644  0.2606453980314651 0.2606453980314651 -0.3224491190562516  0.1793299782912967 0.1793299782912967 -0.6246500569025382  2.542952674080888e-17 0.3686082568662342 -0.3224491190562394  1.749609435972772e-17 0.2536108874396318 -0.6246500569025265  -0.2606453980314651 0.2606453980314651 -0.3224491190562516  -0.1793299782912967 0.1793299782912967 -0.6246500569025382  -0.3686082568662342 2.542952674080888e-17 -0.3224491190562394  -0.2536108874396318 1.749609435972772e-17 -0.6246500569025265  -0.2606453980314651 -0.2606453980314651 -0.3224491190562516  -0.1793299782912967 -0.1793299782912967 -0.6246500569025382  -2.542952674080888e-17 -0.3686082568662342 -0.3224491190562394  -1.749609435972772e-17 -0.2536108874396318 -0.6246500569025265  0.2606453980314651 -0.2606453980314651 -0.3224491190562516  0.1793299782912967 -0.1793299782912967 -0.6246500569025382  0.1743756530083801 0.17437565300838 -0.2554056152626451  0.1249165838769436 0.1249165838769436 -0.5014405794480633  2.565411984094344e-17 0.2466044134321161 -0.2554056152626437  1.837770902997769e-17 0.1766587270840894 -0.5014405794480644  -0.1743756530083802 0.1743756530083803 -0.2554056152626436  -0.1249165838769431 0.1249165838769432 -0.5014405794480646  -0.2466044134321161 7.696235952283031e-17 -0.2554056152626437  -0.1766587270840894 5.513312708993305e-17 -0.5014405794480644  -0.1743756530083802 -0.17437565300838 -0.2554056152626445  -0.1249165838769429 -0.1249165838769428 -0.5014405794480657  -1.282705992047172e-16 -0.2466044134321161 -0.2554056152626437  -9.188854514988842e-17 -0.1766587270840894 -0.5014405794480644  0.1743756530083804 -0.1743756530083806 -0.2554056152626407  0.1249165838769432 -0.1249165838769434 -0.5014405794480641  -0.2855690901238386 -0.1182865901238386 0  -0.2855690901238385 0.1182865901238386 0  -0.1182865901238386 0.2855690901238386 -0  0.1182865901238386 0.2855690901238386 0  0.2855690901238386 0.1182865901238386 0  0.2855690901238386 -0.1182865901238386 0  0.1182865901238385 -0.2855690901238386 0  -0.1182865901238387 -0.2855690901238386 0  </DataArray>
</Points>
<Cells>
<DataArray  type="UInt32"  Name="connectivity"  format="ascii">5 6 24 52  8 9 32 57  7 8 28 50  9 10 32 56  0 4 18 54  6 7 28 51  0 10 18 55  4 5 24 53  10 18 34 55  4 18 22 54  4 22 24 53  8 28 30 50  30 42 44 50  22 23 37 39  21 22 23 37  30 31 43 45  30 31 45 47  20 34 48 55  22 36 38 53  20 22 36 54  28 40 42 51  21 34 35 49  33 34 47 49  16 17 46 56  15 16 46 57  25 26 39 41  22 24 38 53  18 20 34 55  18 20 22 54  28 30 42 50  29 30 31 43  22 23 25 39  19 21 22 23  30 31 33 47  28 29 41 43  15 42 44 50  9 32 46 57  0 18 20 55  5 24 38 52  7 28 42 51  5 24 38 53  0 18 20 54  9 32 46 56  7 28 42 50  33 34 35 49  9 16 46 57  9 16 46 56  12 36 38 53  2 11 20 54  11 12 36 53  14 15 42 50  14 40 42 51  13 14 40 51  12 13 38 52  2 17 48 55  11 20 36 54  2 20 48 55  25 26 27 41  8 30 44 50  10 34 48 55  4 22 36 54  4 22 36 53  27 28 29 41  18 21 34 35  26 27 28 41  18 19 21 35  28 29 30 43  24 25 26 39  22 24 25 39  30 32 33 47  18 19 21 22  32 33 34 47  0 2 20 54  0 2 20 55  7 14 42 50  7 14 42 51  5 12 38 52  5 12 38 53  30 43 44 45  30 44 45 47  22 36 37 39  21 22 36 37  34 47 48 49  21 34 48 49  1 3 31 33  1 3 23 25  1 3 19 23  1 3 29 31  8 15 44 50  30 42 43 44  26 39 40 41  22 36 38 39  20 21 22 36  20 21 34 48  4 11 36 54  4 11 36 53  6 13 40 51  10 17 48 55  3 31 43 45  3 23 37 39  3 31 45 47  3 21 23 37  28 41 42 43  32 44 46 47  1 3 27 29  1 3 33 35  1 3 19 35  1 3 25 27  32 46 47 48  28 40 41 42  24 38 39 40  30 32 44 47  3 33 47 49  3 21 35 49  26 28 40 41  28 30 42 43  24 26 39 40  22 24 38 39  32 34 47 48  18 20 21 22  18 20 21 34  3 29 41 43  3 25 39 41  3 29 31 43  3 23 25 39  3 31 33 47  3 19 21 23  3 33 35 49  3 27 29 41  3 25 27 41  3 19 21 35  6 24 26 40  10 32 34 48  8 30 32 44  6 26 28 40  6 28 40 51  8 15 44 46  8 15 46 57  8 32 44 46  8 32 46 57  10 17 46 56  10 17 46 48  10 32 46 56  10 32 46 48  6 13 38 52  6 13 38 40  6 24 38 52  6 24 38 40  </DataArray>
<DataArray  type="UInt32"  Name="offsets"  format="ascii">4 8 12 16 20 24 28 32 36 40 44 48 52 56 60 64 68 72 76 80 84 88 92 96 100 104 108 112 116 120 124 128 132 136 140 144 148 152 156 160 164 168 172 176 180 184 188 192 196 200 204 208 212 216 220 224 228 232 236 240 244 248 252 256 260 264 268 272 276 280 284 288 292 296 300 304 308 312 316 320 324 328 332 336 340 344 348 352 356 360 364 368 372 376 380 384 388 392 396 400 404 408 412 416 420 424 428 432 436 440 444 448 452 456 460 464 468 472 476 480 484 488 492 496 500 504 508 512 516 520 524 528 532 536 540 544 548 552 556 560 564 568 572 576 580 584 588 592 </DataArray>
<DataArray  type="UInt8"  Name="types"  format="ascii">10 10 10 10 10 10 10 10 10 10 10 10 10 10 10 10 10 10 10 10 10 10 10 10 10 10 10 10 10 10 10 10 10 10 10 10 10 10 10 10 10 10 10 10 10 10 10 10 10 10 10 10 10 10 10 10 10 10 10 10 10 10 10 10 10 10 10 10 10 10 10 10 10 10 10 10 10 10 10 10 10 10 10 10 10 10 10 10 10 10 10 10 10 10 10 10 10 10 10 10 10 10 10 10 10 10 10 10 10 10 10 10 10 10 10 10 10 10 10 10 10 10 10 10 10 10 10 10 10 10 10 10 10 10 10 10 10 10 10 10 10 10 10 10 10 10 10 10 </DataArray>
</Cells>
<PointData  Vectors="f_37-0"> 
<DataArray  type="Float64"  Name="f_37-0"  NumberOfComponents="3" format="ascii">4.6442902178612112e-02 -2.8077098233159258e-02 0.0000000000000000e+00  -2.8923289220265666e-03 5.8511032371898859e-04 -6.9164675273828732e-02  9.0573480601464237e-02 -2.7106091615459654e-02 0.0000000000000000e+00  -1.0250871336514660e-03 -9.9755227222025553e-04 -1.2357389382133567e-01  5.6566864540333418e-02 1.1761308448426728e-02 0.0000000000000000e+00  2.7073936197190607e-02 4.5370993785452909e-02 0.0000000000000000e+00  -1.6237796771003028e-02 5.5746340914786842e-02 0.0000000000000000e+00  -4.1840355215971688e-02 3.0534549748275398e-02 0.0000000000000000e+00  -5.8803126466430822e-02 -1.2575987697450842e-02 0.0000000000000000e+00  -2.9553539738800622e-02 -4.0091201134392324e-02 0.0000000000000000e+00  1.5096298175350301e-02 -5.6271002421182680e-02 0.0000000000000000e+00  8.3957606397149526e-02 4.6249103271958310e-02 0.0000000000000000e+00  2.7017791339900059e-02 9.0177097394838909e-02 0.0000000000000000e+00  -4.6967895337843971e-02 8.5715262004812276e-02 0.0000000000000000e+00  -8.9840536448911587e-02 2.5756553647673486e-02 0.0000000000000000e+00  -8.5765403280665634e-02 -4.9427666772068245e-02 0.0000000000000000e+00  -2.5589453453820857e-02 -9.0056270623147458e-02 0.0000000000000000e+00  4.7416578410083725e-02 -8.5831003436366321e-02 0.0000000000000000e+00  4.4743100235117461e-02 7.0391461865651189e-03 -5.7052632906248089e-02  1.9794896262244517e-02 2.6600221033269325e-02 -8.9451627332374842e-02  9.0372465244383152e-02 4.1527670159772299e-03 -5.4046182671987499e-02  6.0473122700527286e-02 2.9327741357713950e-02 -1.0351066176904949e-01  2.8834003835947506e-02 3.5271501589264044e-02 -4.7955696574636768e-02  -1.0360675305371393e-02 2.6705287736702797e-02 -7.5719504059375997e-02  -1.1422378613412833e-02 4.7221985722483102e-02 -5.4388031254150648e-02  -3.4859163573712083e-02 1.7028788353587357e-02 -8.3321564195947870e-02  -4.0996194326672321e-02 2.8261452750338999e-02 -4.5854970189073904e-02  -3.2719393586625192e-02 -1.0068062840176186e-02 -8.9817164134021119e-02  -4.5584024988612075e-02 -1.3349521881210035e-02 -5.1957593555097346e-02  -1.5502874046877892e-02 -2.7121244775701644e-02 -8.7310585324144541e-02  -2.0264859460918674e-02 -4.1296212602761055e-02 -4.6122524829641839e-02  1.4893066811658782e-02 -2.9849790751394854e-02 -7.5752883932939122e-02  9.4279555849362835e-03 -5.2122415520777975e-02 -5.4351206479318563e-02  3.2822072941099123e-02 -1.5197282476977103e-02 -8.1618571944117452e-02  3.5898819183903391e-02 -3.1389779085722172e-02 -4.9243426794915182e-02  3.4046437932130837e-02 6.3733948301285008e-03 -8.4972236399697518e-02  6.4006860188698139e-02 6.8518647191292165e-02 -5.4966780974721428e-02  2.1914657331400397e-02 6.1897335606718604e-02 -1.0504497872139817e-01  -4.2692865808929741e-03 9.1458778024664358e-02 -5.4366320233324245e-02  -2.8723776922945157e-02 6.1662012441351048e-02 -1.0390328277178391e-01  -6.6434734824392647e-02 6.1657073944807211e-02 -5.4230233114890516e-02  -6.2080886924258741e-02 2.1568842194490984e-02 -1.0306591350833307e-01  -9.1891569456519051e-02 -3.8400864764793234e-03 -5.4278850724299457e-02  -6.0162499747133072e-02 -2.8873651750996741e-02 -1.0399492082527274e-01  -6.1970880233536016e-02 -6.7821262777389743e-02 -5.4558432466523241e-02  -2.1531544540501987e-02 -6.0887267298338994e-02 -1.0463462895512447e-01  3.9340886780102995e-03 -9.3662246571751040e-02 -5.4614245811047499e-02  2.8659919559894356e-02 -6.3108635054404047e-02 -1.0556695007529479e-01  6.7638507566069025e-02 -6.3469015555780245e-02 -5.4762568423950761e-02  6.0827191834425504e-02 -2.2021903612737436e-02 -1.0489273680860826e-01  -8.2767753589529203e-02 -4.7375738443984454e-03 0.0000000000000000e+00  -5.9797235872745866e-02 5.3215592112786272e-02 0.0000000000000000e+00  -4.8810879381028611e-03 7.8841098623240485e-02 0.0000000000000000e+00  5.4672114468104355e-02 6.0402574682266071e-02 0.0000000000000000e+00  8.1899332736710240e-02 4.3436578440885281e-03 0.0000000000000000e+00  6.0538111531584136e-02 -5.4628689814833292e-02 0.0000000000000000e+00  4.8882911519556498e-03 -7.8994908902237204e-02 0.0000000000000000e+00  -5.3666748516315005e-02 -5.8773440216006459e-02 0.0000000000000000e+00  </DataArray> 
</PointData> 
</Piece>
</UnstructuredGrid>
</VTKFile>