<?xml version="1.0"?>
<VTKFile type="UnstructuredGrid"  version="0.1"  >
<UnstructuredGrid>
<Piece  NumberOfPoints="58" NumberOfCells="148">
<Points>
<DataArray  type="Float64"  NumberOfComponents="3"  format="ascii">0.4023249999999999 0 0  0 0 -0.8046499999999999  0.266805 0 0  0 0 -0.6691299999999999  0.2844867357408777 0.2844867357408777 0  2.775557561562891e-17 0.4023249999999999 0  -0.2844867357408777 0.2844867357408777 0  -0.4023249999999999 2.775557561562891e-17 0  -0.2844867357408777 -0.2844867357408777 0  -2.775557561562891e-17 -0.4023249999999999 0  0.2844867357408777 -0.2844867357408777 0  0.1886596247544768 0.1886596247544768 0  2.775557561562891e-17 0.266805 0  -0.1886596247544767 0.1886596247544768 0  -0.266805 8.326672684688674e-17 0  -0.1886596247544768 -0.1886596247544767 0  -1.387778780781446e-16 -0.266805 0  0.1886596247544766 -0.1886596247544769 0  0.3686082568662342 0 -0.3224491190562394  0.2536108874396318 0 -0.6246500569025265  0.2466044134321161 0 -0.2554056152626437  0.1766587270840894 0 -0.5014405794480644  0.2606453980314651 0.2606453980314651 -0.3224491190562516  0.1793299782912967 0.1793299782912967 -0.6246500569025382  2.542952674080888e-17 0.3686082568662342 -0.3224491190562394  1.749609435972772e-17 0.2536108874396318 -0.6246500569025265  -0.2606453980314651 0.2606453980314651 -0.3224491190562516  -0.1793299782912967 0.1793299782912967 -0.6246500569025382  -0.3686082568662342 2.542952674080888e-17 -0.3224491190562394  -0.2536108874396318 1.749609435972772e-17 -0.6246500569025265  -0.2606453980314651 -0.2606453980314651 -0.3224491190562516  -0.1793299782912967 -0.1793299782912967 -0.6246500569025382  -2.542952674080888e-17 -0.3686082568662342 -0.3224491190562394  -1.749609435972772e-17 -0.2536108874396318 -0.6246500569025265  0.2606453980314651 -0.2606453980314651 -0.3224491190562516  0.1793299782912967 -0.1793299782912967 -0.6246500569025382  0.1743756530083801 0.17437565300838 -0.2554056152626451  0.1249165838769436 0.1249165838769436 -0.5014405794480633  2.565411984094344e-17 0.2466044134321161 -0.2554056152626437  1.837770902997769e-17 0.1766587270840894 -0.5014405794480644  -0.1743756530083802 0.1743756530083803 -0.2554056152626436  -0.1249165838769431 0.1249165838769432 -0.5014405794480646  -0.2466044134321161 7.696235952283031e-17 -0.2554056152626437  -0.1766587270840894 5.513312708993305e-17 -0.5014405794480644  -0.1743756530083802 -0.17437565300838 -0.2554056152626445  -0.1249165838769429 -0.1249165838769428 -0.5014405794480657  -1.282705992047172e-16 -0.2466044134321161 -0.2554056152626437  -9.188854514988842e-17 -0.1766587270840894 -0.5014405794480644  0.1743756530083804 -0.1743756530083806 -0.2554056152626407  0.1249165838769432 -0.1249165838769434 -0.5014405794480641  -0.2855690901238386 -0.1182865901238386 0  -0.2855690901238385 0.1182865901238386 0  -0.1182865901238386 0.2855690901238386 -0  0.1182865901238386 0.2855690901238386 0  0.2855690901238386 0.1182865901238386 0  0.2855690901238386 -0.1182865901238386 0  0.1182865901238385 -0.2855690901238386 0  -0.1182865901238387 -0.2855690901238386 0  </DataArray>
</Points>
<Cells>
<DataArray  type="UInt32"  Name="connectivity"  format="ascii">5 6 24 52  8 9 32 57  7 8 28 50  9 10 32 56  0 4 18 54  6 7 28 51  0 10 18 55  4 5 24 53  10 18 34 55  4 18 22 54  4 22 24 53  8 28 30 50  30 42 44 50  22 23 37 39  21 22 23 37  30 31 43 45  30 31 45 47  20 34 48 55  22 36 38 53  20 22 36 54  28 40 42 51  21 34 35 49  33 34 47 49  16 17 46 56  15 16 46 57  25 26 39 41  22 24 38 53  18 20 34 55  18 20 22 54  28 30 42 50  29 30 31 43  22 23 25 39  19 21 22 23  30 31 33 47  28 29 41 43  15 42 44 50  9 32 46 57  0 18 20 55  5 24 38 52  7 28 42 51  5 24 38 53  0 18 20 54  9 32 46 56  7 28 42 50  33 34 35 49  9 16 46 57  9 16 46 56  12 36 38 53  2 11 20 54  11 12 36 53  14 15 42 50  14 40 42 51  13 14 40 51  12 13 38 52  2 17 48 55  11 20 36 54  2 20 48 55  25 26 27 41  8 30 44 50  10 34 48 55  4 22 36 54  4 22 36 53  27 28 29 41  18 21 34 35  26 27 28 41  18 19 21 35  28 29 30 43  24 25 26 39  22 24 25 39  30 32 33 47  18 19 21 22  32 33 34 47  0 2 20 54  0 2 20 55  7 14 42 50  7 14 42 51  5 12 38 52  5 12 38 53  30 43 44 45  30 44 45 47  22 36 37 39  21 22 36 37  34 47 48 49  21 34 48 49  1 3 31 33  1 3 23 25  1 3 19 23  1 3 29 31  8 15 44 50  30 42 43 44  26 39 40 41  22 36 38 39  20 21 22 36  20 21 34 48  4 11 36 54  4 11 36 53  6 13 40 51  10 17 48 55  3 31 43 45  3 23 37 39  3 31 45 47  3 21 23 37  28 41 42 43  32 44 46 47  1 3 27 29  1 3 33 35  1 3 19 35  1 3 25 27  32 46 47 48  28 40 41 42  24 38 39 40  30 32 44 47  3 33 47 49  3 21 35 49  26 28 40 41  28 30 42 43  24 26 39 40  22 24 38 39  32 34 47 48  18 20 21 22  18 20 21 34  3 29 41 43  3 25 39 41  3 29 31 43  3 23 25 39  3 31 33 47  3 19 21 23  3 33 35 49  3 27 29 41  3 25 27 41  3 19 21 35  6 24 26 40  10 32 34 48  8 30 32 44  6 26 28 40  6 28 40 51  8 15 44 46  8 15 46 57  8 32 44 46  8 32 46 57  10 17 46 56  10 17 46 48  10 32 46 56  10 32 46 48  6 13 38 52  6 13 38 40  6 24 38 52  6 24 38 40  </DataArray>
<DataArray  type="UInt32"  Name="offsets"  format="ascii">4 8 12 16 20 24 28 32 36 40 44 48 52 56 60 64 68 72 76 80 84 88 92 96 100 104 108 112 116 120 124 128 132 136 140 144 148 152 156 160 164 168 172 176 180 184 188 192 196 200 204 208 212 216 220 224 228 232 236 240 244 248 252 256 260 264 268 272 276 280 284 288 292 296 300 304 308 312 316 320 324 328 332 336 340 344 348 352 356 360 364 368 372 376 380 384 388 392 396 400 404 408 412 416 420 424 428 432 436 440 444 448 452 456 460 464 468 472 476 480 484 488 492 496 500 504 508 512 516 520 524 528 532 536 540 544 548 552 556 560 564 568 572 576 580 584 588 592 </DataArray>
<DataArray  type="UInt8"  Name="types"  format="ascii">10 10 10 10 10 10 10 10 10 10 10 10 10 10 10 10 10 10 10 10 10 10 10 10 10 10 10 10 10 10 10 10 10 10 10 10 10 10 10 10 10 10 10 10 10 10 10 10 10 10 10 10 10 10 10 10 10 10 10 10 10 10 10 10 10 10 10 10 10 10 10 10 10 10 10 10 10 10 10 10 10 10 10 10 10 10 10 10 10 10 10 10 10 10 10 10 10 10 10 10 10 10 10 10 10 10 10 10 10 10 10 10 10 10 10 10 10 10 10 10 10 10 10 10 10 10 10 10 10 10 10 10 10 10 10 10 10 10 10 10 10 10 10 10 10 10 10 10 </DataArray>
</Cells>
<PointData  Vectors="f_37-0"> 
<DataArray  type="Float64"  Name="f_37-0"  NumberOfComponents="3" format="ascii">2.9733633219441499e-02 -1.5699585393832358e-02 0.0000000000000000e+00  -4.2508520196931450e-04 3.1116831546070228e-04 -3.7585461025504724e-02  5.0551814484992762e-02 -1.3851976718527122e-02 0.0000000000000000e+00  -2.4898202467199810e-05 -7.4143415448728179e-05 -4.9018327986620390e-02  3.4993499532328151e-02 1.1649404404351691e-02 0.0000000000000000e+00  1.5758589040260972e-02 3.0174390731144151e-02 0.0000000000000000e+00  -1.1289725544922413e-02 3.4473770951958110e-02 0.0000000000000000e+00  -2.9395177687085008e-02 1.6456495415931294e-02 0.0000000000000000e+00  -3.4810301484199391e-02 -1.1966842542594820e-02 0.0000000000000000e+00  -1.6321358031028878e-02 -2.8377918279579785e-02 0.0000000000000000e+00  1.0592354861623982e-02 -3.4217195796173196e-02 0.0000000000000000e+00  4.7041991487855997e-02 2.7453045503237898e-02 0.0000000000000000e+00  1.4161709101964419e-02 5.0712425617584336e-02 0.0000000000000000e+00  -2.7397918647703468e-02 4.7994138185800235e-02 0.0000000000000000e+00  -5.0560759319753477e-02 1.3712639356715517e-02 0.0000000000000000e+00  -4.7627061416998011e-02 -2.8949742825384941e-02 0.0000000000000000e+00  -1.3457527413643625e-02 -5.0699344102794162e-02 0.0000000000000000e+00  2.7345987418970891e-02 -4.7611609545675462e-02 0.0000000000000000e+00  2.6186302717627639e-02 4.4619949280509203e-03 -2.5330377194058340e-02  8.3735674988474409e-03 1.7856588920151774e-02 -4.0100287559699008e-02  5.0027176406290431e-02 2.3457999090502795e-03 -2.3836131823428804e-02  3.1959428498406509e-02 1.4909362992346470e-02 -4.4429615283490972e-02  1.6262445739379325e-02 2.1883752657292064e-02 -2.3533122476207310e-02  -6.8409713367302309e-03 1.8333014685634249e-02 -3.9161412073662138e-02  -5.2692358477167594e-03 2.6773574969778731e-02 -2.4647849557348320e-02  -1.9833468652481354e-02 7.7735242910762217e-03 -3.9775644441267244e-02  -2.2921078628849061e-02 1.4241854745524148e-02 -2.2464906808636050e-02  -1.8793699994655435e-02 -7.2914258700767223e-03 -4.0010020798826866e-02  -2.7160868145592945e-02 -5.8051307874842197e-03 -2.4221934015206392e-02  -7.9436557436942720e-03 -1.7214933527186595e-02 -4.0238824350197218e-02  -1.3984767729222936e-02 -2.2947431004314185e-02 -2.2569898256598931e-02  7.6437618177024420e-03 -1.8619274177238250e-02 -3.8937091362451999e-02  5.1965325466241481e-03 -2.7472098333753681e-02 -2.4622266746659786e-02  2.0014152142582561e-02 -7.9074083527767118e-03 -4.0237063190438606e-02  2.1977659780576839e-02 -1.5724577615186492e-02 -2.3691026378763993e-02  1.8805308702942111e-02 6.5717856372476723e-03 -4.0145237115735380e-02  3.5164284903616498e-02 3.7692486731311800e-02 -2.4637154523350802e-02  1.2740308518122266e-02 3.2875475742829931e-02 -4.5275349403107228e-02  -2.0977817181916901e-03 5.0767008047055064e-02 -2.4076226048705598e-02  -1.4075441925877801e-02 3.2480939689512642e-02 -4.4834593037261339e-02  -3.6491246601599782e-02 3.3790915484111297e-02 -2.3934730117530681e-02  -3.2419439271430123e-02 1.1641008016556461e-02 -4.4467841004749473e-02  -5.0972749272777902e-02 -1.9634549394453842e-03 -2.4388812931144848e-02  -3.2128488096173732e-02 -1.5006234428230349e-02 -4.4762028342757804e-02  -3.4742050995474894e-02 -3.7121180557346936e-02 -2.4561695615488020e-02  -1.2425980424191223e-02 -3.2254200328805986e-02 -4.5693703931797822e-02  1.8264542635729809e-03 -5.1770080601143999e-02 -2.4547012227104557e-02  1.4237504743727678e-02 -3.2887110557327570e-02 -4.5471689319574571e-02  3.7251669721382663e-02 -3.4516637271277913e-02 -2.4588142328958538e-02  3.2268212197764996e-02 -1.2125149698095193e-02 -4.5679416112626180e-02  -4.6119764161400269e-02 -3.9451372268980650e-03 0.0000000000000000e+00  -3.4317732249391865e-02 2.8953576441697729e-02 0.0000000000000000e+00  -4.1282044216168576e-03 4.5040502132861940e-02 0.0000000000000000e+00  2.9521555676055918e-02 3.5274472349637237e-02 0.0000000000000000e+00  4.5461583563684210e-02 3.9595058862948711e-03 0.0000000000000000e+00  3.4851821684179780e-02 -2.9245618229939933e-02 0.0000000000000000e+00  3.9552967822460185e-03 -4.4444360203271839e-02 0.0000000000000000e+00  -2.9269164046145980e-02 -3.4428854449462032e-02 0.0000000000000000e+00  </DataArray> 
</PointData> 
</Piece>
</UnstructuredGrid>
</VTKFile>