<?xml version="1.0"?>
<VTKFile type="UnstructuredGrid"  version="0.1"  >
<UnstructuredGrid>
<Piece  NumberOfPoints="58" NumberOfCells="148">
<Points>
<DataArray  type="Float64"  NumberOfComponents="3"  format="ascii">0.4023249999999999 0 0  0 0 -0.8046499999999999  0.266805 0 0  0 0 -0.6691299999999999  0.2844867357408777 0.2844867357408777 0  2.775557561562891e-17 0.4023249999999999 0  -0.2844867357408777 0.2844867357408777 0  -0.4023249999999999 2.775557561562891e-17 0  -0.2844867357408777 -0.2844867357408777 0  -2.775557561562891e-17 -0.4023249999999999 0  0.2844867357408777 -0.2844867357408777 0  0.1886596247544768 0.1886596247544768 0  2.775557561562891e-17 0.266805 0  -0.1886596247544767 0.1886596247544768 0  -0.266805 8.326672684688674e-17 0  -0.1886596247544768 -0.1886596247544767 0  -1.387778780781446e-16 -0.266805 0  0.1886596247544766 -0.1886596247544769 0  0.3686082568662342 0 -0.3224491190562394  0.2536108874396318 0 -0.6246500569025265  0.2466044134321161 0 -0.2554056152626437  0.1766587270840894 0 -0.5014405794480644  0.2606453980314651 0.2606453980314651 -0.3224491190562516  0.1793299782912967 0.1793299782912967 -0.6246500569025382  2.542952674080888e-17 0.3686082568662342 -0.3224491190562394  1.749609435972772e-17 0.2536108874396318 -0.6246500569025265  -0.2606453980314651 0.2606453980314651 -0.3224491190562516  -0.1793299782912967 0.1793299782912967 -0.6246500569025382  -0.3686082568662342 2.542952674080888e-17 -0.3224491190562394  -0.2536108874396318 1.749609435972772e-17 -0.6246500569025265  -0.2606453980314651 -0.2606453980314651 -0.3224491190562516  -0.1793299782912967 -0.1793299782912967 -0.6246500569025382  -2.542952674080888e-17 -0.3686082568662342 -0.3224491190562394  -1.749609435972772e-17 -0.2536108874396318 -0.6246500569025265  0.2606453980314651 -0.2606453980314651 -0.3224491190562516  0.1793299782912967 -0.1793299782912967 -0.6246500569025382  0.1743756530083801 0.17437565300838 -0.2554056152626451  0.1249165838769436 0.1249165838769436 -0.5014405794480633  2.565411984094344e-17 0.2466044134321161 -0.2554056152626437  1.837770902997769e-17 0.1766587270840894 -0.5014405794480644  -0.1743756530083802 0.1743756530083803 -0.2554056152626436  -0.1249165838769431 0.1249165838769432 -0.5014405794480646  -0.2466044134321161 7.696235952283031e-17 -0.2554056152626437  -0.1766587270840894 5.513312708993305e-17 -0.5014405794480644  -0.1743756530083802 -0.17437565300838 -0.2554056152626445  -0.1249165838769429 -0.1249165838769428 -0.5014405794480657  -1.282705992047172e-16 -0.2466044134321161 -0.2554056152626437  -9.188854514988842e-17 -0.1766587270840894 -0.5014405794480644  0.1743756530083804 -0.1743756530083806 -0.2554056152626407  0.1249165838769432 -0.1249165838769434 -0.5014405794480641  -0.2855690901238386 -0.1182865901238386 0  -0.2855690901238385 0.1182865901238386 0  -0.1182865901238386 0.2855690901238386 -0  0.1182865901238386 0.2855690901238386 0  0.2855690901238386 0.1182865901238386 0  0.2855690901238386 -0.1182865901238386 0  0.1182865901238385 -0.2855690901238386 0  -0.1182865901238387 -0.2855690901238386 0  </DataArray>
</Points>
<Cells>
<DataArray  type="UInt32"  Name="connectivity"  format="ascii">5 6 24 52  8 9 32 57  7 8 28 50  9 10 32 56  0 4 18 54  6 7 28 51  0 10 18 55  4 5 24 53  10 18 34 55  4 18 22 54  4 22 24 53  8 28 30 50  30 42 44 50  22 23 37 39  21 22 23 37  30 31 43 45  30 31 45 47  20 34 48 55  22 36 38 53  20 22 36 54  28 40 42 51  21 34 35 49  33 34 47 49  16 17 46 56  15 16 46 57  25 26 39 41  22 24 38 53  18 20 34 55  18 20 22 54  28 30 42 50  29 30 31 43  22 23 25 39  19 21 22 23  30 31 33 47  28 29 41 43  15 42 44 50  9 32 46 57  0 18 20 55  5 24 38 52  7 28 42 51  5 24 38 53  0 18 20 54  9 32 46 56  7 28 42 50  33 34 35 49  9 16 46 57  9 16 46 56  12 36 38 53  2 11 20 54  11 12 36 53  14 15 42 50  14 40 42 51  13 14 40 51  12 13 38 52  2 17 48 55  11 20 36 54  2 20 48 55  25 26 27 41  8 30 44 50  10 34 48 55  4 22 36 54  4 22 36 53  27 28 29 41  18 21 34 35  26 27 28 41  18 19 21 35  28 29 30 43  24 25 26 39  22 24 25 39  30 32 33 47  18 19 21 22  32 33 34 47  0 2 20 54  0 2 20 55  7 14 42 50  7 14 42 51  5 12 38 52  5 12 38 53  30 43 44 45  30 44 45 47  22 36 37 39  21 22 36 37  34 47 48 49  21 34 48 49  1 3 31 33  1 3 23 25  1 3 19 23  1 3 29 31  8 15 44 50  30 42 43 44  26 39 40 41  22 36 38 39  20 21 22 36  20 21 34 48  4 11 36 54  4 11 36 53  6 13 40 51  10 17 48 55  3 31 43 45  3 23 37 39  3 31 45 47  3 21 23 37  28 41 42 43  32 44 46 47  1 3 27 29  1 3 33 35  1 3 19 35  1 3 25 27  32 46 47 48  28 40 41 42  24 38 39 40  30 32 44 47  3 33 47 49  3 21 35 49  26 28 40 41  28 30 42 43  24 26 39 40  22 24 38 39  32 34 47 48  18 20 21 22  18 20 21 34  3 29 41 43  3 25 39 41  3 29 31 43  3 23 25 39  3 31 33 47  3 19 21 23  3 33 35 49  3 27 29 41  3 25 27 41  3 19 21 35  6 24 26 40  10 32 34 48  8 30 32 44  6 26 28 40  6 28 40 51  8 15 44 46  8 15 46 57  8 32 44 46  8 32 46 57  10 17 46 56  10 17 46 48  10 32 46 56  10 32 46 48  6 13 38 52  6 13 38 40  6 24 38 52  6 24 38 40  </DataArray>
<DataArray  type="UInt32"  Name="offsets"  format="ascii">4 8 12 16 20 24 28 32 36 40 44 48 52 56 60 64 68 72 76 80 84 88 92 96 100 104 108 112 116 120 124 128 132 136 140 144 148 152 156 160 164 168 172 176 180 184 188 192 196 200 204 208 212 216 220 224 228 232 236 240 244 248 252 256 260 264 268 272 276 280 284 288 292 296 300 304 308 312 316 320 324 328 332 336 340 344 348 352 356 360 364 368 372 376 380 384 388 392 396 400 404 408 412 416 420 424 428 432 436 440 444 448 452 456 460 464 468 472 476 480 484 488 492 496 500 504 508 512 516 520 524 528 532 536 540 544 548 552 556 560 564 568 572 576 580 584 588 592 </DataArray>
<DataArray  type="UInt8"  Name="types"  format="ascii">10 10 10 10 10 10 10 10 10 10 10 10 10 10 10 10 10 10 10 10 10 10 10 10 10 10 10 10 10 10 10 10 10 10 10 10 10 10 10 10 10 10 10 10 10 10 10 10 10 10 10 10 10 10 10 10 10 10 10 10 10 10 10 10 10 10 10 10 10 10 10 10 10 10 10 10 10 10 10 10 10 10 10 10 10 10 10 10 10 10 10 10 10 10 10 10 10 10 10 10 10 10 10 10 10 10 10 10 10 10 10 10 10 10 10 10 10 10 10 10 10 10 10 10 10 10 10 10 10 10 10 10 10 10 10 10 10 10 10 10 10 10 10 10 10 10 10 10 </DataArray>
</Cells>
<PointData  Vectors="f_37-0"> 
<DataArray  type="Float64"  Name="f_37-0"  NumberOfComponents="3" format="ascii">2.8754329229582005e-02 -1.5155181036649812e-02 0.0000000000000000e+00  -3.9397850753095115e-04 2.7708206017081413e-04 -3.5491071496616906e-02  4.8742185781342484e-02 -1.3333707744995571e-02 0.0000000000000000e+00  -1.1008458789550955e-05 -5.9370046941905687e-05 -4.5947159039208450e-02  3.3841798636874462e-02 1.1334858804825900e-02 0.0000000000000000e+00  1.5235744202003899e-02 2.9192432018451172e-02 0.0000000000000000e+00  -1.0953053723971855e-02 3.3367535159073480e-02 0.0000000000000000e+00  -2.8457768707240001e-02 1.5863537207371398e-02 0.0000000000000000e+00  -3.3656255244734583e-02 -1.1644605737449963e-02 0.0000000000000000e+00  -1.5762454726554225e-02 -2.7481430902874384e-02 0.0000000000000000e+00  1.0262765828440962e-02 -3.3098751989093414e-02 0.0000000000000000e+00  4.5398174339612164e-02 2.6535550258497412e-02 0.0000000000000000e+00  1.3638015086632066e-02 4.8911048530776824e-02 0.0000000000000000e+00  -2.6456372354928013e-02 4.6320869661515281e-02 0.0000000000000000e+00  -4.8768859952863168e-02 1.3217355221208487e-02 0.0000000000000000e+00  -4.5932576699573735e-02 -2.7974878003374847e-02 0.0000000000000000e+00  -1.2955314962866974e-02 -4.8912675498032500e-02 0.0000000000000000e+00  2.6397640417209354e-02 -4.5938303286195817e-02 0.0000000000000000e+00  2.5272844503177589e-02 4.2707964522399637e-03 -2.4049810763700392e-02  7.9513847839628171e-03 1.7141423369425694e-02 -3.7936980756601721e-02  4.8203461956127638e-02 2.2211912515570885e-03 -2.2591978042599461e-02  3.0632707396726126e-02 1.4223473427761365e-02 -4.1942736378934538e-02  1.5722768541054782e-02 2.1116564827626708e-02 -2.2405561115759372e-02  -6.5852064397850943e-03 1.7603278134507253e-02 -3.7185414929523666e-02  -5.0021460517567558e-03 2.5820740738481670e-02 -2.3408986821483315e-02  -1.8993653447509928e-02 7.3527736617283795e-03 -3.7675253996583488e-02  -2.2040091064602488e-02 1.3755963633300323e-02 -2.1376428909318873e-02  -1.7951864255296497e-02 -7.0333335467807319e-03 -3.7825605250944791e-02  -2.6230818269447141e-02 -5.5071717916470499e-03 -2.3026382934714349e-02  -7.5528138798141350e-03 -1.6526782735915135e-02 -3.8096996033715490e-02  -1.3582881922979103e-02 -2.2071732854755749e-02 -2.1489016129908223e-02  7.3090525282912657e-03 -1.7855986485499270e-02 -3.6980118922641490e-02  4.9377668792510510e-03 -2.6450494853670382e-02 -2.3380738811611533e-02  1.9190345272351205e-02 -7.5006765310836098e-03 -3.8144616584853172e-02  2.1171647146880818e-02 -1.5160285029653808e-02 -2.2544348773893632e-02  1.7965863371484012e-02 6.3600932302635554e-03 -3.8032188945850247e-02  3.3896957393270845e-02 3.6278056745313030e-02 -2.3364922585354192e-02  1.2297670135515817e-02 3.1488664508327845e-02 -4.2764491631528498e-02  -1.9778880679827701e-03 4.8910998778900545e-02 -2.2824975635751522e-02  -1.3403807157236401e-02 3.1131279909295873e-02 -4.2345407567538254e-02  -3.5106040954699679e-02 3.2565247487633078e-02 -2.2687605517972099e-02  -3.1029849206896533e-02 1.1192323761999650e-02 -4.1995631813869866e-02  -4.9115905377199551e-02 -1.8447213780316272e-03 -2.3142066209674333e-02  -3.0818280395269543e-02 -1.4321503263076563e-02 -4.2267640020925791e-02  -3.3522442147811693e-02 -3.5726290188796167e-02 -2.3302524821611065e-02  -1.1994354263134109e-02 -3.0906459260347605e-02 -4.3196143353704600e-02  1.6979197308142440e-03 -4.9877859811717315e-02 -2.3295831514416537e-02  1.3568669125698251e-02 -3.1513845090085014e-02 -4.2949975398201584e-02  3.5844818503982689e-02 -3.3252649143563066e-02 -2.3326346867263495e-02  3.0911126615153512e-02 -1.1687208279180523e-02 -4.3178139867325376e-02  -4.4488853139130063e-02 -3.8449234483304865e-03 0.0000000000000000e+00  -3.3152220766555010e-02 2.7908904438782581e-02 0.0000000000000000e+00  -4.0236436086520388e-03 4.3495443638152401e-02 0.0000000000000000e+00  2.8444081162302171e-02 3.4075270000496878e-02 0.0000000000000000e+00  4.3854467142831796e-02 3.8737886885666191e-03 0.0000000000000000e+00  3.3657033289378066e-02 -2.8172751933833746e-02 0.0000000000000000e+00  3.8519875010551048e-03 -4.2897475923944953e-02 0.0000000000000000e+00  -2.8220731498515353e-02 -3.3268423576839005e-02 0.0000000000000000e+00  </DataArray> 
</PointData> 
</Piece>
</UnstructuredGrid>
</VTKFile>