<?xml version="1.0"?>
<VTKFile type="UnstructuredGrid"  version="0.1"  >
<UnstructuredGrid>
<Piece  NumberOfPoints="58" NumberOfCells="148">
<Points>
<DataArray  type="Float64"  NumberOfComponents="3"  format="ascii">0.4023249999999999 0 0  0 0 -0.8046499999999999  0.266805 0 0  0 0 -0.6691299999999999  0.2844867357408777 0.2844867357408777 0  2.775557561562891e-17 0.4023249999999999 0  -0.2844867357408777 0.2844867357408777 0  -0.4023249999999999 2.775557561562891e-17 0  -0.2844867357408777 -0.2844867357408777 0  -2.775557561562891e-17 -0.4023249999999999 0  0.2844867357408777 -0.2844867357408777 0  0.1886596247544768 0.1886596247544768 0  2.775557561562891e-17 0.266805 0  -0.1886596247544767 0.1886596247544768 0  -0.266805 8.326672684688674e-17 0  -0.1886596247544768 -0.1886596247544767 0  -1.387778780781446e-16 -0.266805 0  0.1886596247544766 -0.1886596247544769 0  0.3686082568662342 0 -0.3224491190562394  0.2536108874396318 0 -0.6246500569025265  0.2466044134321161 0 -0.2554056152626437  0.1766587270840894 0 -0.5014405794480644  0.2606453980314651 0.2606453980314651 -0.3224491190562516  0.1793299782912967 0.1793299782912967 -0.6246500569025382  2.542952674080888e-17 0.3686082568662342 -0.3224491190562394  1.749609435972772e-17 0.2536108874396318 -0.6246500569025265  -0.2606453980314651 0.2606453980314651 -0.3224491190562516  -0.1793299782912967 0.1793299782912967 -0.6246500569025382  -0.3686082568662342 2.542952674080888e-17 -0.3224491190562394  -0.2536108874396318 1.749609435972772e-17 -0.6246500569025265  -0.2606453980314651 -0.2606453980314651 -0.3224491190562516  -0.1793299782912967 -0.1793299782912967 -0.6246500569025382  -2.542952674080888e-17 -0.3686082568662342 -0.3224491190562394  -1.749609435972772e-17 -0.2536108874396318 -0.6246500569025265  0.2606453980314651 -0.2606453980314651 -0.3224491190562516  0.1793299782912967 -0.1793299782912967 -0.6246500569025382  0.1743756530083801 0.17437565300838 -0.2554056152626451  0.1249165838769436 0.1249165838769436 -0.5014405794480633  2.565411984094344e-17 0.2466044134321161 -0.2554056152626437  1.837770902997769e-17 0.1766587270840894 -0.5014405794480644  -0.1743756530083802 0.1743756530083803 -0.2554056152626436  -0.1249165838769431 0.1249165838769432 -0.5014405794480646  -0.2466044134321161 7.696235952283031e-17 -0.2554056152626437  -0.1766587270840894 5.513312708993305e-17 -0.5014405794480644  -0.1743756530083802 -0.17437565300838 -0.2554056152626445  -0.1249165838769429 -0.1249165838769428 -0.5014405794480657  -1.282705992047172e-16 -0.2466044134321161 -0.2554056152626437  -9.188854514988842e-17 -0.1766587270840894 -0.5014405794480644  0.1743756530083804 -0.1743756530083806 -0.2554056152626407  0.1249165838769432 -0.1249165838769434 -0.5014405794480641  -0.2855690901238386 -0.1182865901238386 0  -0.2855690901238385 0.1182865901238386 0  -0.1182865901238386 0.2855690901238386 -0  0.1182865901238386 0.2855690901238386 0  0.2855690901238386 0.1182865901238386 0  0.2855690901238386 -0.1182865901238386 0  0.1182865901238385 -0.2855690901238386 0  -0.1182865901238387 -0.2855690901238386 0  </DataArray>
</Points>
<Cells>
<DataArray  type="UInt32"  Name="connectivity"  format="ascii">5 6 24 52  8 9 32 57  7 8 28 50  9 10 32 56  0 4 18 54  6 7 28 51  0 10 18 55  4 5 24 53  10 18 34 55  4 18 22 54  4 22 24 53  8 28 30 50  30 42 44 50  22 23 37 39  21 22 23 37  30 31 43 45  30 31 45 47  20 34 48 55  22 36 38 53  20 22 36 54  28 40 42 51  21 34 35 49  33 34 47 49  16 17 46 56  15 16 46 57  25 26 39 41  22 24 38 53  18 20 34 55  18 20 22 54  28 30 42 50  29 30 31 43  22 23 25 39  19 21 22 23  30 31 33 47  28 29 41 43  15 42 44 50  9 32 46 57  0 18 20 55  5 24 38 52  7 28 42 51  5 24 38 53  0 18 20 54  9 32 46 56  7 28 42 50  33 34 35 49  9 16 46 57  9 16 46 56  12 36 38 53  2 11 20 54  11 12 36 53  14 15 42 50  14 40 42 51  13 14 40 51  12 13 38 52  2 17 48 55  11 20 36 54  2 20 48 55  25 26 27 41  8 30 44 50  10 34 48 55  4 22 36 54  4 22 36 53  27 28 29 41  18 21 34 35  26 27 28 41  18 19 21 35  28 29 30 43  24 25 26 39  22 24 25 39  30 32 33 47  18 19 21 22  32 33 34 47  0 2 20 54  0 2 20 55  7 14 42 50  7 14 42 51  5 12 38 52  5 12 38 53  30 43 44 45  30 44 45 47  22 36 37 39  21 22 36 37  34 47 48 49  21 34 48 49  1 3 31 33  1 3 23 25  1 3 19 23  1 3 29 31  8 15 44 50  30 42 43 44  26 39 40 41  22 36 38 39  20 21 22 36  20 21 34 48  4 11 36 54  4 11 36 53  6 13 40 51  10 17 48 55  3 31 43 45  3 23 37 39  3 31 45 47  3 21 23 37  28 41 42 43  32 44 46 47  1 3 27 29  1 3 33 35  1 3 19 35  1 3 25 27  32 46 47 48  28 40 41 42  24 38 39 40  30 32 44 47  3 33 47 49  3 21 35 49  26 28 40 41  28 30 42 43  24 26 39 40  22 24 38 39  32 34 47 48  18 20 21 22  18 20 21 34  3 29 41 43  3 25 39 41  3 29 31 43  3 23 25 39  3 31 33 47  3 19 21 23  3 33 35 49  3 27 29 41  3 25 27 41  3 19 21 35  6 24 26 40  10 32 34 48  8 30 32 44  6 26 28 40  6 28 40 51  8 15 44 46  8 15 46 57  8 32 44 46  8 32 46 57  10 17 46 56  10 17 46 48  10 32 46 56  10 32 46 48  6 13 38 52  6 13 38 40  6 24 38 52  6 24 38 40  </DataArray>
<DataArray  type="UInt32"  Name="offsets"  format="ascii">4 8 12 16 20 24 28 32 36 40 44 48 52 56 60 64 68 72 76 80 84 88 92 96 100 104 108 112 116 120 124 128 132 136 140 144 148 152 156 160 164 168 172 176 180 184 188 192 196 200 204 208 212 216 220 224 228 232 236 240 244 248 252 256 260 264 268 272 276 280 284 288 292 296 300 304 308 312 316 320 324 328 332 336 340 344 348 352 356 360 364 368 372 376 380 384 388 392 396 400 404 408 412 416 420 424 428 432 436 440 444 448 452 456 460 464 468 472 476 480 484 488 492 496 500 504 508 512 516 520 524 528 532 536 540 544 548 552 556 560 564 568 572 576 580 584 588 592 </DataArray>
<DataArray  type="UInt8"  Name="types"  format="ascii">10 10 10 10 10 10 10 10 10 10 10 10 10 10 10 10 10 10 10 10 10 10 10 10 10 10 10 10 10 10 10 10 10 10 10 10 10 10 10 10 10 10 10 10 10 10 10 10 10 10 10 10 10 10 10 10 10 10 10 10 10 10 10 10 10 10 10 10 10 10 10 10 10 10 10 10 10 10 10 10 10 10 10 10 10 10 10 10 10 10 10 10 10 10 10 10 10 10 10 10 10 10 10 10 10 10 10 10 10 10 10 10 10 10 10 10 10 10 10 10 10 10 10 10 10 10 10 10 10 10 10 10 10 10 10 10 10 10 10 10 10 10 10 10 10 10 10 10 </DataArray>
</Cells>
<PointData  Vectors="f_37-0"> 
<DataArray  type="Float64"  Name="f_37-0"  NumberOfComponents="3" format="ascii">3.7837881711283550e-02 -2.0284644310791695e-02 0.0000000000000000e+00  -8.6125958913867617e-04 8.4962439223037946e-04 -5.4159275008600606e-02  6.6412437014961301e-02 -1.8466756301948831e-02 0.0000000000000000e+00  -2.5051803604483647e-04 -2.5021876111283082e-04 -7.7828398039122532e-02  4.4553456872866014e-02 1.3864205336902259e-02 0.0000000000000000e+00  2.0078200409796777e-02 3.8149711982293368e-02 0.0000000000000000e+00  -1.4110484694560882e-02 4.3588471224221867e-02 0.0000000000000000e+00  -3.6807120776614959e-02 2.1620788505149712e-02 0.0000000000000000e+00  -4.4625694312335956e-02 -1.4140090997265722e-02 0.0000000000000000e+00  -2.1048059341684165e-02 -3.5346247111117210e-02 0.0000000000000000e+00  1.3401030139881890e-02 -4.3534186274480260e-02 0.0000000000000000e+00  6.1384830273555409e-02 3.5398876295189750e-02 0.0000000000000000e+00  1.8773709904349560e-02 6.6470622167937324e-02 0.0000000000000000e+00  -3.5597203054453082e-02 6.2635442543890765e-02 0.0000000000000000e+00  -6.6209311264895002e-02 1.8041262832976412e-02 0.0000000000000000e+00  -6.2438112039191508e-02 -3.7429784534224499e-02 0.0000000000000000e+00  -1.7816530493332153e-02 -6.6296290730255572e-02 0.0000000000000000e+00  3.5659813466706221e-02 -6.2293132452753065e-02 0.0000000000000000e+00  3.3960501155717221e-02 6.2156010243119651e-03 -3.7302814222163548e-02  1.2191424938222424e-02 2.3574638635492234e-02 -5.9881824035333375e-02  6.5991533008735420e-02 3.5950684819312339e-03 -3.5410331815232059e-02  4.3512434805661360e-02 2.1150795510705672e-02 -6.7416622518232910e-02  2.0849281841919514e-02 2.8324909308589170e-02 -3.3610806396952651e-02  -9.1386804391356963e-03 2.3785696806778556e-02 -5.5859715852330842e-02  -7.9522865250890949e-03 3.5026865357840435e-02 -3.6140096368630990e-02  -2.7117873733435865e-02 1.1520712199631076e-02 -5.8485605465779016e-02  -3.0712329461520239e-02 1.8651596592847958e-02 -3.2183349151589963e-02  -2.6000625602384947e-02 -9.3621649707612761e-03 -6.0156973898852301e-02  -3.4991730023939342e-02 -8.8603156577762281e-03 -3.5149741763126512e-02  -1.1162019562007488e-02 -2.2843795486516116e-02 -5.9526537232390299e-02  -1.6929865180341921e-02 -3.0760576311298967e-02 -3.2254912402905137e-02  1.0977390249829968e-02 -2.4548913358673187e-02 -5.5543191434814773e-02  7.6334830025023359e-03 -3.6641741361120847e-02 -3.6100939789695002e-02  2.6911221322626022e-02 -1.1312171415628458e-02 -5.8634628741450298e-02  2.8813864733366938e-02 -2.0843649803850263e-02 -3.4025195117208688e-02  2.6041451092050999e-02 8.1076815205621076e-03 -5.8963111642013045e-02  4.6207040987756076e-02 5.0256851411831331e-02 -3.6392233645321848e-02  1.6270696779641557e-02 4.5023304837602154e-02 -6.8473374447342680e-02  -3.3634259348386177e-03 6.6992211908280544e-02 -3.5698107002262655e-02  -2.0288590419960201e-02 4.4290261805176492e-02 -6.7803108412807359e-02  -4.8747990337249213e-02 4.4477979108318265e-02 -3.5527713293380087e-02  -4.4706218929742442e-02 1.5400596569946237e-02 -6.7284138386169270e-02  -6.7200092471924003e-02 -3.1581302749031140e-03 -3.5915782648641807e-02  -4.3466705361814399e-02 -2.1103981687953990e-02 -6.7804434454755300e-02  -4.5251616038419012e-02 -4.9513115966435171e-02 -3.6181481046521864e-02  -1.5874251279761359e-02 -4.4050805663509426e-02 -6.8666611851846096e-02  3.1435312053635246e-03 -6.8345345678785682e-02 -3.6115992655240001e-02  2.0392449950155104e-02 -4.4970539635576165e-02 -6.8806848420110200e-02  4.9694238036591447e-02 -4.5558609125842670e-02 -3.6248861052331785e-02  4.4176648515050973e-02 -1.5753632077543434e-02 -6.8735230718862936e-02  -6.0430787500357137e-02 -4.7851983185179421e-03 0.0000000000000000e+00  -4.4503625554891874e-02 3.8108640722857814e-02 0.0000000000000000e+00  -4.9945928712487172e-03 5.8459247393135391e-02 0.0000000000000000e+00  3.9005254799237644e-02 4.5668857484553835e-02 0.0000000000000000e+00  5.9587844270211340e-02 4.6663874055983658e-03 0.0000000000000000e+00  4.5271780410981274e-02 -3.8712102442196521e-02 0.0000000000000000e+00  4.8432001997654218e-03 -5.7938373240432488e-02 0.0000000000000000e+00  -3.8426354856492366e-02 -4.4429578733553098e-02 0.0000000000000000e+00  </DataArray> 
</PointData> 
</Piece>
</UnstructuredGrid>
</VTKFile>